
.Version 8.11.8 of ABINIT 
.(MPI version, prepared for a x86_64_linux_intel19.0 computer) 

.Copyright (C) 1998-2019 ABINIT group . 
 ABINIT comes with ABSOLUTELY NO WARRANTY.
 It is free software, and you are welcome to redistribute it
 under certain conditions (GNU General Public License,
 see ~abinit/COPYING or http://www.gnu.org/copyleft/gpl.txt).

 ABINIT is a project of the Universite Catholique de Louvain,
 Corning Inc. and other collaborators, see ~abinit/doc/developers/contributors.txt .
 Please read https://docs.abinit.org/theory/acknowledgments for suggested
 acknowledgments of the ABINIT effort.
 For more information, see https://www.abinit.org .

.Starting date : Thu 20 Jun 2019.
- ( at 14h16 )
  
- input  file    -> t03.in
- output file    -> t03_x.out
- root for input  files -> t03_xi
- root for output files -> t03_xo
 
- inpspheads : Reading pseudopotential header in XML form from ../../../Psps_for_tests/ba.hpc.paw.xml
 
 Symmetries : space group Pm -3 m (#221); Bravais cP (primitive cubic)
================================================================================
 Values of the parameters that define the memory need of the present run
     intxc =       0    ionmov =       0      iscf =      17    lmnmax =      18
     lnmax =       6     mgfft =      40  mpssoang =       3    mqgrid =    3001
     natom =      31  nloc_mem =       2    nspden =       1   nspinor =       1
    nsppol =       1      nsym =      48    n1xccc =       1    ntypat =       1
    occopt =       3   xclevel =       1
-    mband =         192        mffmem =           1         mkmem =           1
       mpw =        3887          nfft =       64000          nkpt =           1
 PAW method is used; the additional fine FFT grid is defined by:
   mgfftf=        45    nfftf =     91125
================================================================================
P This job should need less than                      83.897 Mbytes of memory.
  Rough estimation (10% accuracy) of disk space for files :
_ WF disk file :     11.390 Mbytes ; DEN or POT disk file :      0.697 Mbytes.
================================================================================
 
--------------------------------------------------------------------------------
------------- Echo of variables that govern the present computation ------------
--------------------------------------------------------------------------------
-
- outvars: echo of selected default values                                      
-   iomode0 =  0 , fftalg0 =312 , wfoptalg0 = 10
-
- outvars: echo of global parameters not present in the input file              
-  max_nthreads =    1
-
 -outvars: echo values of preprocessed input variables --------
-          iomode           1
            acell      1.5340000000E+01  1.5340000000E+01  1.5340000000E+01 Bohr
              amu      1.37327000E+02
           bandpp         192
      chksymbreak           0
     densfor_pred           6
             ecut      8.00000000E+00 Hartree
-          fftalg         312
           istwfk        1
              ixc           7
           kptopt           0
P           mkmem           1
            natom          31
            nband         192
            ngfft          40      40      40
          ngfftdg          45      45      45
             nkpt           1
            nstep          40
             nsym          48
           ntypat           1
              occ      2.000000  2.000000  2.000000  2.000000  2.000000  2.000000
                       2.000000  2.000000  2.000000  2.000000  2.000000  2.000000
                       2.000000  2.000000  2.000000  2.000000  2.000000  2.000000
                       2.000000  2.000000  2.000000  2.000000  2.000000  2.000000
                       2.000000  2.000000  2.000000  2.000000  2.000000  2.000000
                       2.000000  2.000000  2.000000  2.000000  2.000000  2.000000
                       2.000000  2.000000  2.000000  2.000000  2.000000  2.000000
                       2.000000  2.000000  2.000000  2.000000  2.000000  2.000000
                       2.000000  2.000000  2.000000  2.000000  2.000000  2.000000
                       2.000000  2.000000  2.000000  2.000000  2.000000  2.000000
                       2.000000  2.000000  2.000000  2.000000  2.000000  2.000000
                       2.000000  2.000000  2.000000  2.000000  2.000000  2.000000
                       2.000000  2.000000  2.000000  2.000000  2.000000  2.000000
                       2.000000  2.000000  2.000000  2.000000  2.000000  2.000000
                       2.000000  2.000000  2.000000  2.000000  2.000000  2.000000
                       2.000000  2.000000  2.000000  2.000000  2.000000  2.000000
                       2.000000  2.000000  2.000000  2.000000  2.000000  2.000000
                       2.000000  2.000000  2.000000  2.000000  2.000000  2.000000
                       2.000000  2.000000  2.000000  2.000000  2.000000  2.000000
                       2.000000  2.000000  2.000000  2.000000  2.000000  2.000000
                       2.000000  2.000000  2.000000  2.000000  2.000000  2.000000
                       2.000000  2.000000  2.000000  2.000000  2.000000  2.000000
                       2.000000  2.000000  2.000000  2.000000  2.000000  2.000000
                       2.000000  2.000000  2.000000  2.000000  2.000000  2.000000
                       2.000000  2.000000  2.000000  2.000000  2.000000  2.000000
                       2.000000  2.000000  2.000000  2.000000  2.000000  0.000000
                       0.000000  0.000000  0.000000  0.000000  0.000000  0.000000
                       0.000000  0.000000  0.000000  0.000000  0.000000  0.000000
                       0.000000  0.000000  0.000000  0.000000  0.000000  0.000000
                       0.000000  0.000000  0.000000  0.000000  0.000000  0.000000
                       0.000000  0.000000  0.000000  0.000000  0.000000  0.000000
                       0.000000  0.000000  0.000000  0.000000  0.000000  0.000000
           occopt           3
        paral_kgb           1
        pawecutdg      1.00000000E+01 Hartree
           prtden           0
           prteig           0
            prtwf           0
          spgroup         221
           symrel      1  0  0   0  1  0   0  0  1      -1  0  0   0 -1  0   0  0 -1
                      -1  0  0   0  1  0   0  0 -1       1  0  0   0 -1  0   0  0  1
                      -1  0  0   0 -1  0   0  0  1       1  0  0   0  1  0   0  0 -1
                       1  0  0   0 -1  0   0  0 -1      -1  0  0   0  1  0   0  0  1
                       0  1  0   1  0  0   0  0  1       0 -1  0  -1  0  0   0  0 -1
                       0 -1  0   1  0  0   0  0 -1       0  1  0  -1  0  0   0  0  1
                       0 -1  0  -1  0  0   0  0  1       0  1  0   1  0  0   0  0 -1
                       0  1  0  -1  0  0   0  0 -1       0 -1  0   1  0  0   0  0  1
                       0  0  1   1  0  0   0  1  0       0  0 -1  -1  0  0   0 -1  0
                       0  0 -1   1  0  0   0 -1  0       0  0  1  -1  0  0   0  1  0
                       0  0 -1  -1  0  0   0  1  0       0  0  1   1  0  0   0 -1  0
                       0  0  1  -1  0  0   0 -1  0       0  0 -1   1  0  0   0  1  0
                       1  0  0   0  0  1   0  1  0      -1  0  0   0  0 -1   0 -1  0
                      -1  0  0   0  0  1   0 -1  0       1  0  0   0  0 -1   0  1  0
                      -1  0  0   0  0 -1   0  1  0       1  0  0   0  0  1   0 -1  0
                       1  0  0   0  0 -1   0 -1  0      -1  0  0   0  0  1   0  1  0
                       0  1  0   0  0  1   1  0  0       0 -1  0   0  0 -1  -1  0  0
                       0 -1  0   0  0  1  -1  0  0       0  1  0   0  0 -1   1  0  0
                       0 -1  0   0  0 -1   1  0  0       0  1  0   0  0  1  -1  0  0
                       0  1  0   0  0 -1  -1  0  0       0 -1  0   0  0  1   1  0  0
                       0  0  1   0  1  0   1  0  0       0  0 -1   0 -1  0  -1  0  0
                       0  0 -1   0  1  0  -1  0  0       0  0  1   0 -1  0   1  0  0
                       0  0 -1   0 -1  0   1  0  0       0  0  1   0  1  0  -1  0  0
                       0  0  1   0 -1  0  -1  0  0       0  0 -1   0  1  0   1  0  0
           timopt          -3
           toldfe      1.00000000E-05 Hartree
           tsmear      2.00000000E-03 Hartree
            typat      1  1  1  1  1  1  1  1  1  1  1  1  1  1  1  1  1  1  1  1
                       1  1  1  1  1  1  1  1  1  1  1
           useylm           1
         wfoptalg           1
           xangst      2.0293945949E+00  2.0293945949E+00  0.0000000000E+00
                       2.0293945949E+00  0.0000000000E+00  2.0293945949E+00
                       0.0000000000E+00  2.0293945949E+00  2.0293945949E+00
                       0.0000000000E+00  0.0000000000E+00  4.0587891899E+00
                       2.0293945949E+00  2.0293945949E+00  4.0587891899E+00
                       2.0293945949E+00  0.0000000000E+00  6.0881837848E+00
                       0.0000000000E+00  2.0293945949E+00  6.0881837848E+00
                       0.0000000000E+00  4.0587891899E+00  0.0000000000E+00
                       2.0293945949E+00  6.0881837848E+00  0.0000000000E+00
                       2.0293945949E+00  4.0587891899E+00  2.0293945949E+00
                       0.0000000000E+00  6.0881837848E+00  2.0293945949E+00
                       0.0000000000E+00  4.0587891899E+00  4.0587891899E+00
                       2.0293945949E+00  6.0881837848E+00  4.0587891899E+00
                       2.0293945949E+00  4.0587891899E+00  6.0881837848E+00
                       0.0000000000E+00  6.0881837848E+00  6.0881837848E+00
                       4.0587891899E+00  0.0000000000E+00  0.0000000000E+00
                       6.0881837848E+00  2.0293945949E+00  0.0000000000E+00
                       6.0881837848E+00  0.0000000000E+00  2.0293945949E+00
                       4.0587891899E+00  2.0293945949E+00  2.0293945949E+00
                       4.0587891899E+00  0.0000000000E+00  4.0587891899E+00
                       6.0881837848E+00  2.0293945949E+00  4.0587891899E+00
                       6.0881837848E+00  0.0000000000E+00  6.0881837848E+00
                       4.0587891899E+00  2.0293945949E+00  6.0881837848E+00
                       4.0587891899E+00  4.0587891899E+00  0.0000000000E+00
                       6.0881837848E+00  6.0881837848E+00  0.0000000000E+00
                       6.0881837848E+00  4.0587891899E+00  2.0293945949E+00
                       4.0587891899E+00  6.0881837848E+00  2.0293945949E+00
                       4.0587891899E+00  4.0587891899E+00  4.0587891899E+00
                       6.0881837848E+00  6.0881837848E+00  4.0587891899E+00
                       6.0881837848E+00  4.0587891899E+00  6.0881837848E+00
                       4.0587891899E+00  6.0881837848E+00  6.0881837848E+00
            xcart      3.8350000000E+00  3.8350000000E+00  0.0000000000E+00
                       3.8350000000E+00  0.0000000000E+00  3.8350000000E+00
                       0.0000000000E+00  3.8350000000E+00  3.8350000000E+00
                       0.0000000000E+00  0.0000000000E+00  7.6700000000E+00
                       3.8350000000E+00  3.8350000000E+00  7.6700000000E+00
                       3.8350000000E+00  0.0000000000E+00  1.1505000000E+01
                       0.0000000000E+00  3.8350000000E+00  1.1505000000E+01
                       0.0000000000E+00  7.6700000000E+00  0.0000000000E+00
                       3.8350000000E+00  1.1505000000E+01  0.0000000000E+00
                       3.8350000000E+00  7.6700000000E+00  3.8350000000E+00
                       0.0000000000E+00  1.1505000000E+01  3.8350000000E+00
                       0.0000000000E+00  7.6700000000E+00  7.6700000000E+00
                       3.8350000000E+00  1.1505000000E+01  7.6700000000E+00
                       3.8350000000E+00  7.6700000000E+00  1.1505000000E+01
                       0.0000000000E+00  1.1505000000E+01  1.1505000000E+01
                       7.6700000000E+00  0.0000000000E+00  0.0000000000E+00
                       1.1505000000E+01  3.8350000000E+00  0.0000000000E+00
                       1.1505000000E+01  0.0000000000E+00  3.8350000000E+00
                       7.6700000000E+00  3.8350000000E+00  3.8350000000E+00
                       7.6700000000E+00  0.0000000000E+00  7.6700000000E+00
                       1.1505000000E+01  3.8350000000E+00  7.6700000000E+00
                       1.1505000000E+01  0.0000000000E+00  1.1505000000E+01
                       7.6700000000E+00  3.8350000000E+00  1.1505000000E+01
                       7.6700000000E+00  7.6700000000E+00  0.0000000000E+00
                       1.1505000000E+01  1.1505000000E+01  0.0000000000E+00
                       1.1505000000E+01  7.6700000000E+00  3.8350000000E+00
                       7.6700000000E+00  1.1505000000E+01  3.8350000000E+00
                       7.6700000000E+00  7.6700000000E+00  7.6700000000E+00
                       1.1505000000E+01  1.1505000000E+01  7.6700000000E+00
                       1.1505000000E+01  7.6700000000E+00  1.1505000000E+01
                       7.6700000000E+00  1.1505000000E+01  1.1505000000E+01
             xred      2.5000000000E-01  2.5000000000E-01  0.0000000000E+00
                       2.5000000000E-01  0.0000000000E+00  2.5000000000E-01
                       0.0000000000E+00  2.5000000000E-01  2.5000000000E-01
                       0.0000000000E+00  0.0000000000E+00  5.0000000000E-01
                       2.5000000000E-01  2.5000000000E-01  5.0000000000E-01
                       2.5000000000E-01  0.0000000000E+00  7.5000000000E-01
                       0.0000000000E+00  2.5000000000E-01  7.5000000000E-01
                       0.0000000000E+00  5.0000000000E-01  0.0000000000E+00
                       2.5000000000E-01  7.5000000000E-01  0.0000000000E+00
                       2.5000000000E-01  5.0000000000E-01  2.5000000000E-01
                       0.0000000000E+00  7.5000000000E-01  2.5000000000E-01
                       0.0000000000E+00  5.0000000000E-01  5.0000000000E-01
                       2.5000000000E-01  7.5000000000E-01  5.0000000000E-01
                       2.5000000000E-01  5.0000000000E-01  7.5000000000E-01
                       0.0000000000E+00  7.5000000000E-01  7.5000000000E-01
                       5.0000000000E-01  0.0000000000E+00  0.0000000000E+00
                       7.5000000000E-01  2.5000000000E-01  0.0000000000E+00
                       7.5000000000E-01  0.0000000000E+00  2.5000000000E-01
                       5.0000000000E-01  2.5000000000E-01  2.5000000000E-01
                       5.0000000000E-01  0.0000000000E+00  5.0000000000E-01
                       7.5000000000E-01  2.5000000000E-01  5.0000000000E-01
                       7.5000000000E-01  0.0000000000E+00  7.5000000000E-01
                       5.0000000000E-01  2.5000000000E-01  7.5000000000E-01
                       5.0000000000E-01  5.0000000000E-01  0.0000000000E+00
                       7.5000000000E-01  7.5000000000E-01  0.0000000000E+00
                       7.5000000000E-01  5.0000000000E-01  2.5000000000E-01
                       5.0000000000E-01  7.5000000000E-01  2.5000000000E-01
                       5.0000000000E-01  5.0000000000E-01  5.0000000000E-01
                       7.5000000000E-01  7.5000000000E-01  5.0000000000E-01
                       7.5000000000E-01  5.0000000000E-01  7.5000000000E-01
                       5.0000000000E-01  7.5000000000E-01  7.5000000000E-01
            znucl       56.00000
 
================================================================================
 
 chkinp: Checking input parameters for consistency.
 
================================================================================
== DATASET  1 ==================================================================
-   nproc =    1
 
 Exchange-correlation functional for the present dataset will be:
  LDA: Perdew-Wang 92 LSD fit to Ceperley-Alder data - ixc=7
 Citation for XC functional:
  J.P.Perdew and Y.Wang, PRB 45, 13244 (1992)
 
 Real(R)+Recip(G) space primitive vectors, cartesian coordinates (Bohr,Bohr^-1):
 R(1)= 15.3400000  0.0000000  0.0000000  G(1)=  0.0651890  0.0000000  0.0000000
 R(2)=  0.0000000 15.3400000  0.0000000  G(2)=  0.0000000  0.0651890  0.0000000
 R(3)=  0.0000000  0.0000000 15.3400000  G(3)=  0.0000000  0.0000000  0.0651890
 Unit cell volume ucvol=  3.6097413E+03 bohr^3
 Angles (23,13,12)=  9.00000000E+01  9.00000000E+01  9.00000000E+01 degrees
 
 Coarse grid specifications (used for wave-functions):
 
 getcut: wavevector=  0.0000  0.0000  0.0000  ngfft=  40  40  40
         ecut(hartree)=      8.000   => boxcut(ratio)=   2.04797
 
 Fine grid specifications (used for densities):
 
 getcut: wavevector=  0.0000  0.0000  0.0000  ngfft=  45  45  45
         ecut(hartree)=     10.000   => boxcut(ratio)=   2.01494
 
--- Pseudopotential description ------------------------------------------------
- pspini: atom type   1  psp file is ../../../Psps_for_tests/ba.hpc.paw.xml
- pspatm: opening atomic psp file    ../../../Psps_for_tests/ba.hpc.paw.xml
- pspatm : Reading pseudopotential header in XML form from ../../../Psps_for_tests/ba.hpc.paw.xml
 Pseudopotential format is: paw10
 basis_size (lnmax)=  6 (lmn_size= 18), orbitals=   0   0   1   1   2   2
 Spheres core radius: rc_sph= 2.31518568
 1 radial meshes are used:
  - mesh 1: r(i)=AA*[exp(BB*(i-1))-1], size=1500 , AA= 0.15658E-03 BB= 0.87685E-02
 Shapefunction is SIN type: shapef(r)=[sin(pi*r/rshp)/(pi*r/rshp)]**2
 Radius for shape functions =  2.01210979
 mmax= 1500
 Radial grid used for partial waves is grid 1
 Radial grid used for projectors is grid 1
 Radial grid used for (t)core density is grid 1
 Radial grid used for Vloc is grid 1
 Radial grid used for pseudo valence density is grid 1
 Mesh size for Vloc has been set to 1341 to avoid numerical noise.
 Compensation charge density is not taken into account in XC energy/potential
 pspatm: atomic psp has been read  and splines computed
 
   5.70955898E+05                                ecore*ucvol(ha*bohr**3)
--------------------------------------------------------------------------------
 
_setup2: Arith. and geom. avg. npw (full set) are    3887.000    3887.000
 
================================================================================
 
     iter   Etot(hartree)      deltaE(h)  residm     nres2
 ETOT  1  -790.61559369086    -7.906E+02 5.941E+00 1.131E+01
 ETOT  2  -798.88011571308    -8.265E+00 8.859E+00 1.582E+00
 ETOT  3  -800.01224795319    -1.132E+00 5.804E-01 3.816E-01
 ETOT  4  -800.04634455182    -3.410E-02 1.100E+01 2.911E-02
 ETOT  5  -800.35537922208    -3.090E-01 1.747E-01 1.050E-01
 ETOT  6  -800.35774009622    -2.361E-03 9.037E+00 7.294E-02
 ETOT  7  -800.41254033573    -5.480E-02 6.182E-01 8.494E-02
 ETOT  8  -800.40682171854     5.719E-03 1.166E+01 6.363E-02
 ETOT  9  -800.42310572453    -1.628E-02 1.013E-01 2.645E-02
 ETOT 10  -800.42362255634    -5.168E-04 7.598E+00 1.322E-02
 ETOT 11  -800.42620155084    -2.579E-03 1.244E+00 8.622E-03
 ETOT 12  -800.42541399385     7.876E-04 1.133E+01 3.963E-03
 ETOT 13  -800.42677548775    -1.361E-03 1.599E-01 9.595E-04
 ETOT 14  -800.42672935349     4.613E-05 8.736E+00 5.415E-04
 ETOT 15  -800.42698980740    -2.605E-04 7.340E-01 4.330E-05
 ETOT 16  -800.42693182228     5.799E-05 1.175E+01 6.603E-06
 ETOT 17  -800.42706613773    -1.343E-04 1.059E-01 5.746E-06
 ETOT 18  -800.42706220829     3.929E-06 7.544E+00 2.115E-06
 ETOT 19  -800.42708196781    -1.976E-05 1.273E+00 2.702E-06
 ETOT 20  -800.42707629493     5.673E-06 1.130E+01 5.052E-07
 ETOT 21  -800.42708854731    -1.225E-05 1.604E-01 1.882E-07
 ETOT 22  -800.42708760221     9.451E-07 8.813E+00 2.237E-08
 ETOT 23  -800.42709007356    -2.471E-06 7.019E-01 8.005E-08
 
 At SCF step   23, etot is converged : 
  for the second time, diff in etot=  2.471E-06 < toldfe=  1.000E-05
 
 Cartesian components of stress tensor (hartree/bohr^3)
  sigma(1 1)= -4.33629281E-03  sigma(3 2)=  0.00000000E+00
  sigma(2 2)= -4.33629281E-03  sigma(3 1)=  0.00000000E+00
  sigma(3 3)= -4.33629281E-03  sigma(2 1)=  0.00000000E+00
 
 Integrated electronic density in atomic spheres:
 ------------------------------------------------
 Atom  Sphere_radius  Integrated_density
    1        2.31519          7.04701348
    2        2.31519          7.04701348
    3        2.31519          7.04701348
    4        2.31519          6.96777062
    5        2.31519          7.10077643
    6        2.31519          7.04701348
    7        2.31519          7.04701348
    8        2.31519          6.96777062
    9        2.31519          7.04701348
   10        2.31519          7.10077643
   11        2.31519          7.04701348
   12        2.31519          7.03238194
   13        2.31519          7.10077643
   14        2.31519          7.10077643
   15        2.31519          7.04701348
   16        2.31519          6.96777062
   17        2.31519          7.04701348
   18        2.31519          7.04701348
   19        2.31519          7.10077643
   20        2.31519          7.03238194
   21        2.31519          7.10077643
   22        2.31519          7.04701348
   23        2.31519          7.10077643
   24        2.31519          7.03238194
   25        2.31519          7.04701348
   26        2.31519          7.10077643
   27        2.31519          7.10077643
   28        2.31519          7.11123655
   29        2.31519          7.10077643
   30        2.31519          7.10077643
   31        2.31519          7.10077643
 
 PAW TEST:
 ==== Compensation charge inside spheres ============
 The following values must be close to each other ...
 Compensation charge over spherical meshes =    -83.807174924742910
 Compensation charge over fine fft grid    =    -83.807282996794044
 
 ==== Results concerning PAW augmentation regions ====
 
 Total pseudopotential strength Dij (hartree):
 Atom #  1
   0.41420   0.06332   0.00046   0.00000   0.00046   0.00011   0.00000   0.00011  -0.00012   0.00000   0.00003   0.00000 ...
   0.06332   0.00885   0.00010   0.00000   0.00010   0.00008   0.00000   0.00008  -0.00003   0.00000   0.00001   0.00000 ...
   0.00046   0.00010  -0.17382   0.00000  -0.00017   0.00055   0.00000  -0.00008   0.00018   0.00000  -0.00009   0.00000 ...
   0.00000   0.00000   0.00000  -0.17373   0.00000   0.00000   0.00062   0.00000   0.00000   0.00009   0.00000   0.00009 ...
   0.00046   0.00010  -0.00017   0.00000  -0.17382  -0.00008   0.00000   0.00055   0.00018   0.00000  -0.00009   0.00000 ...
   0.00011   0.00008   0.00055   0.00000  -0.00008  -1.14548   0.00000  -0.00024   0.00017   0.00000  -0.00008   0.00000 ...
   0.00000   0.00000   0.00000   0.00062   0.00000   0.00000  -1.14528   0.00000   0.00000   0.00007   0.00000   0.00007 ...
   0.00011   0.00008  -0.00008   0.00000   0.00055  -0.00024   0.00000  -1.14548   0.00017   0.00000  -0.00008   0.00000 ...
  -0.00012  -0.00003   0.00018   0.00000   0.00018   0.00017   0.00000   0.00017  -0.03054   0.00000   0.00002   0.00000 ...
   0.00000   0.00000   0.00000   0.00009   0.00000   0.00000   0.00007   0.00000   0.00000  -0.03053   0.00000  -0.00002 ...
   0.00003   0.00001  -0.00009   0.00000  -0.00009  -0.00008   0.00000  -0.00008   0.00002   0.00000  -0.03055   0.00000 ...
   0.00000   0.00000   0.00000   0.00009   0.00000   0.00000   0.00007   0.00000   0.00000  -0.00002   0.00000  -0.03053 ...
   ...  only 12  components have been written...
 Atom # 31
   0.41593   0.06360   0.00017   0.00017   0.00000  -0.00007  -0.00007   0.00000   0.00000  -0.00006  -0.00001   0.00000 ...
   0.06360   0.00890   0.00003   0.00003   0.00000  -0.00000  -0.00000   0.00000   0.00000  -0.00001  -0.00000   0.00000 ...
   0.00017   0.00003  -0.17307  -0.00008   0.00000   0.00077  -0.00004   0.00000   0.00000   0.00003  -0.00001   0.00000 ...
   0.00017   0.00003  -0.00008  -0.17307   0.00000  -0.00004   0.00077   0.00000   0.00000   0.00003   0.00003   0.00000 ...
   0.00000   0.00000   0.00000   0.00000  -0.17300   0.00000   0.00000   0.00083   0.00002   0.00000   0.00000   0.00002 ...
  -0.00007  -0.00000   0.00077  -0.00004   0.00000  -1.14463  -0.00010   0.00000   0.00000   0.00001   0.00001   0.00000 ...
  -0.00007  -0.00000  -0.00004   0.00077   0.00000  -0.00010  -1.14463   0.00000   0.00000   0.00001  -0.00000   0.00000 ...
   0.00000   0.00000   0.00000   0.00000   0.00083   0.00000   0.00000  -1.14454  -0.00001   0.00000   0.00000  -0.00001 ...
   0.00000   0.00000   0.00000   0.00000   0.00002   0.00000   0.00000  -0.00001  -0.03040   0.00000   0.00000  -0.00001 ...
  -0.00006  -0.00001   0.00003   0.00003   0.00000   0.00001   0.00001   0.00000   0.00000  -0.03042  -0.00001   0.00000 ...
  -0.00001  -0.00000  -0.00001   0.00003   0.00000   0.00001  -0.00000   0.00000   0.00000  -0.00001  -0.03044   0.00000 ...
   0.00000   0.00000   0.00000   0.00000   0.00002   0.00000   0.00000  -0.00001  -0.00001   0.00000   0.00000  -0.03040 ...
   ...  only 12  components have been written...
 
 
 Augmentation waves occupancies Rhoij:
 Atom #  1
   2.09432  -0.11960  -0.00175   0.00000  -0.00175  -0.00027   0.00000  -0.00027   0.01801   0.00000  -0.05589   0.00000 ...
  -0.11960   0.24817   0.00202   0.00000   0.00202   0.00129   0.00000   0.00129  -0.02370   0.00000   0.06528   0.00000 ...
  -0.00175   0.00202   1.86540   0.00000   0.01688   0.01083   0.00000  -0.00191   0.01055   0.00000  -0.02928   0.00000 ...
   0.00000   0.00000   0.00000   1.88629   0.00000   0.00000   0.00874   0.00000   0.00000   0.01240   0.00000   0.01240 ...
  -0.00175   0.00202   0.01688   0.00000   1.86540  -0.00191   0.00000   0.01083   0.01055   0.00000  -0.02928   0.00000 ...
  -0.00027   0.00129   0.01083   0.00000  -0.00191   0.00151   0.00000   0.00009   0.00057   0.00000   0.00213   0.00000 ...
   0.00000   0.00000   0.00000   0.00874   0.00000   0.00000   0.00183   0.00000   0.00000  -0.00033   0.00000  -0.00033 ...
  -0.00027   0.00129  -0.00191   0.00000   0.01083   0.00009   0.00000   0.00151   0.00057   0.00000   0.00213   0.00000 ...
   0.01801  -0.02370   0.01055   0.00000   0.01055   0.00057   0.00000   0.00057   0.43417   0.00000   0.02356   0.00000 ...
   0.00000   0.00000   0.00000   0.01240   0.00000   0.00000  -0.00033   0.00000   0.00000   0.44881   0.00000  -0.04514 ...
  -0.05589   0.06528  -0.02928   0.00000  -0.02928   0.00213   0.00000   0.00213   0.02356   0.00000   0.55717   0.00000 ...
   0.00000   0.00000   0.00000   0.01240   0.00000   0.00000  -0.00033   0.00000   0.00000  -0.04514   0.00000   0.44881 ...
   ...  only 12  components have been written...
 Atom # 31
   2.11787  -0.14743  -0.00122  -0.00122   0.00000   0.00000   0.00000   0.00000   0.00000  -0.00919  -0.00978   0.00000 ...
  -0.14743   0.28756   0.00219   0.00219   0.00000  -0.00018  -0.00018   0.00000   0.00000   0.00835   0.00923   0.00000 ...
  -0.00122   0.00219   1.85305   0.00729   0.00000   0.01216  -0.00075   0.00000   0.00000   0.00377  -0.00855   0.00000 ...
  -0.00122   0.00219   0.00729   1.85305   0.00000  -0.00075   0.01216   0.00000   0.00000   0.00377  -0.00162   0.00000 ...
   0.00000   0.00000   0.00000   0.00000   1.88140   0.00000   0.00000   0.00958  -0.01497   0.00000   0.00000  -0.01497 ...
   0.00000  -0.00018   0.01216  -0.00075   0.00000   0.00156   0.00004   0.00000   0.00000  -0.00017   0.00068   0.00000 ...
   0.00000  -0.00018  -0.00075   0.01216   0.00000   0.00004   0.00156   0.00000   0.00000  -0.00017   0.00057   0.00000 ...
   0.00000   0.00000   0.00000   0.00000   0.00958   0.00000   0.00000   0.00185   0.00167   0.00000   0.00000   0.00167 ...
   0.00000   0.00000   0.00000   0.00000  -0.01497   0.00000   0.00000   0.00167   0.49332   0.00000   0.00000  -0.03674 ...
  -0.00919   0.00835   0.00377   0.00377   0.00000  -0.00017  -0.00017   0.00000   0.00000   0.46382   0.01341   0.00000 ...
  -0.00978   0.00923  -0.00855  -0.00162   0.00000   0.00068   0.00057   0.00000   0.00000   0.01341   0.53504   0.00000 ...
   0.00000   0.00000   0.00000   0.00000  -0.01497   0.00000   0.00000   0.00167  -0.03674   0.00000   0.00000   0.49332 ...
   ...  only 12  components have been written...
 
 
================================================================================
 
 ----iterations are completed or convergence reached----
 
 Mean square residual over all n,k,spin=   97.989E-04; max=  70.188E-02
 reduced coordinates (array xred) for   31 atoms
       0.250000000000      0.250000000000      0.000000000000
       0.250000000000      0.000000000000      0.250000000000
       0.000000000000      0.250000000000      0.250000000000
       0.000000000000      0.000000000000      0.500000000000
       0.250000000000      0.250000000000      0.500000000000
       0.250000000000      0.000000000000      0.750000000000
       0.000000000000      0.250000000000      0.750000000000
       0.000000000000      0.500000000000      0.000000000000
       0.250000000000      0.750000000000      0.000000000000
       0.250000000000      0.500000000000      0.250000000000
       0.000000000000      0.750000000000      0.250000000000
       0.000000000000      0.500000000000      0.500000000000
       0.250000000000      0.750000000000      0.500000000000
       0.250000000000      0.500000000000      0.750000000000
       0.000000000000      0.750000000000      0.750000000000
       0.500000000000      0.000000000000      0.000000000000
       0.750000000000      0.250000000000      0.000000000000
       0.750000000000      0.000000000000      0.250000000000
       0.500000000000      0.250000000000      0.250000000000
       0.500000000000      0.000000000000      0.500000000000
       0.750000000000      0.250000000000      0.500000000000
       0.750000000000      0.000000000000      0.750000000000
       0.500000000000      0.250000000000      0.750000000000
       0.500000000000      0.500000000000      0.000000000000
       0.750000000000      0.750000000000      0.000000000000
       0.750000000000      0.500000000000      0.250000000000
       0.500000000000      0.750000000000      0.250000000000
       0.500000000000      0.500000000000      0.500000000000
       0.750000000000      0.750000000000      0.500000000000
       0.750000000000      0.500000000000      0.750000000000
       0.500000000000      0.750000000000      0.750000000000
 rms dE/dt=  2.0482E-01; max dE/dt=  3.9177E-01; dE/dt below (all hartree)
    1       0.391765285013      0.391765285013     -0.000000000000
    2       0.391765285013     -0.000000000000      0.391765285013
    3      -0.000000000000      0.391765285013      0.391765285013
    4       0.000000000000      0.000000000000      0.000000000000
    5      -0.095313034726     -0.095313034726      0.000000000000
    6       0.391765285013     -0.000000000000     -0.391765285013
    7      -0.000000000000      0.391765285013     -0.391765285013
    8       0.000000000000      0.000000000000      0.000000000000
    9       0.391765285013     -0.391765285013      0.000000000000
   10      -0.095313034726      0.000000000000     -0.095313034726
   11       0.000000000000     -0.391765285013      0.391765285013
   12       0.000000000000      0.000000000000      0.000000000000
   13      -0.095313034726      0.095313034726      0.000000000000
   14      -0.095313034726      0.000000000000      0.095313034726
   15       0.000000000000     -0.391765285013     -0.391765285013
   16       0.000000000000      0.000000000000      0.000000000000
   17      -0.391765285013      0.391765285013     -0.000000000000
   18      -0.391765285013      0.000000000000      0.391765285013
   19       0.000000000000     -0.095313034726     -0.095313034726
   20       0.000000000000      0.000000000000      0.000000000000
   21       0.095313034726     -0.095313034726     -0.000000000000
   22      -0.391765285013      0.000000000000     -0.391765285013
   23       0.000000000000     -0.095313034726      0.095313034726
   24       0.000000000000      0.000000000000      0.000000000000
   25      -0.391765285013     -0.391765285013      0.000000000000
   26       0.095313034726      0.000000000000     -0.095313034726
   27      -0.000000000000      0.095313034726     -0.095313034726
   28       0.000000000000      0.000000000000      0.000000000000
   29       0.095313034726      0.095313034726     -0.000000000000
   30       0.095313034726      0.000000000000      0.095313034726
   31       0.000000000000      0.095313034726      0.095313034726
 
 cartesian coordinates (angstrom) at end:
    1      2.02939459494265     2.02939459494265     0.00000000000000
    2      2.02939459494265     0.00000000000000     2.02939459494265
    3      0.00000000000000     2.02939459494265     2.02939459494265
    4      0.00000000000000     0.00000000000000     4.05878918988530
    5      2.02939459494265     2.02939459494265     4.05878918988530
    6      2.02939459494265     0.00000000000000     6.08818378482795
    7      0.00000000000000     2.02939459494265     6.08818378482795
    8      0.00000000000000     4.05878918988530     0.00000000000000
    9      2.02939459494265     6.08818378482795     0.00000000000000
   10      2.02939459494265     4.05878918988530     2.02939459494265
   11      0.00000000000000     6.08818378482795     2.02939459494265
   12      0.00000000000000     4.05878918988530     4.05878918988530
   13      2.02939459494265     6.08818378482795     4.05878918988530
   14      2.02939459494265     4.05878918988530     6.08818378482795
   15      0.00000000000000     6.08818378482795     6.08818378482795
   16      4.05878918988530     0.00000000000000     0.00000000000000
   17      6.08818378482795     2.02939459494265     0.00000000000000
   18      6.08818378482795     0.00000000000000     2.02939459494265
   19      4.05878918988530     2.02939459494265     2.02939459494265
   20      4.05878918988530     0.00000000000000     4.05878918988530
   21      6.08818378482795     2.02939459494265     4.05878918988530
   22      6.08818378482795     0.00000000000000     6.08818378482795
   23      4.05878918988530     2.02939459494265     6.08818378482795
   24      4.05878918988530     4.05878918988530     0.00000000000000
   25      6.08818378482795     6.08818378482795     0.00000000000000
   26      6.08818378482795     4.05878918988530     2.02939459494265
   27      4.05878918988530     6.08818378482795     2.02939459494265
   28      4.05878918988530     4.05878918988530     4.05878918988530
   29      6.08818378482795     6.08818378482795     4.05878918988530
   30      6.08818378482795     4.05878918988530     6.08818378482795
   31      4.05878918988530     6.08818378482795     6.08818378482795
 
 cartesian forces (hartree/bohr) at end:
    1     -0.02553880606346    -0.02553880606346     0.00000000000000
    2     -0.02553880606346    -0.00000000000000    -0.02553880606346
    3     -0.00000000000000    -0.02553880606346    -0.02553880606346
    4     -0.00000000000000    -0.00000000000000     0.00000000000000
    5      0.00621336601865     0.00621336601865     0.00000000000000
    6     -0.02553880606346    -0.00000000000000     0.02553880606346
    7     -0.00000000000000    -0.02553880606346     0.02553880606346
    8     -0.00000000000000    -0.00000000000000     0.00000000000000
    9     -0.02553880606346     0.02553880606346     0.00000000000000
   10      0.00621336601865    -0.00000000000000     0.00621336601865
   11     -0.00000000000000     0.02553880606346    -0.02553880606346
   12     -0.00000000000000    -0.00000000000000     0.00000000000000
   13      0.00621336601865    -0.00621336601865     0.00000000000000
   14      0.00621336601865    -0.00000000000000    -0.00621336601865
   15     -0.00000000000000     0.02553880606346     0.02553880606346
   16     -0.00000000000000    -0.00000000000000     0.00000000000000
   17      0.02553880606346    -0.02553880606346     0.00000000000000
   18      0.02553880606346    -0.00000000000000    -0.02553880606346
   19     -0.00000000000000     0.00621336601865     0.00621336601865
   20     -0.00000000000000    -0.00000000000000     0.00000000000000
   21     -0.00621336601865     0.00621336601865     0.00000000000000
   22      0.02553880606346    -0.00000000000000     0.02553880606346
   23     -0.00000000000000     0.00621336601865    -0.00621336601865
   24     -0.00000000000000    -0.00000000000000     0.00000000000000
   25      0.02553880606346     0.02553880606346     0.00000000000000
   26     -0.00621336601865    -0.00000000000000     0.00621336601865
   27     -0.00000000000000    -0.00621336601865     0.00621336601865
   28     -0.00000000000000    -0.00000000000000     0.00000000000000
   29     -0.00621336601865    -0.00621336601865     0.00000000000000
   30     -0.00621336601865    -0.00000000000000    -0.00621336601865
   31     -0.00000000000000    -0.00621336601865    -0.00621336601865
 frms,max,avg= 1.3352168E-02 2.5538806E-02   0.000E+00  0.000E+00  0.000E+00 h/b
 
 cartesian forces (eV/Angstrom) at end:
    1     -1.31325809924908    -1.31325809924908     0.00000000000000
    2     -1.31325809924908    -0.00000000000000    -1.31325809924908
    3     -0.00000000000000    -1.31325809924908    -1.31325809924908
    4     -0.00000000000000    -0.00000000000000     0.00000000000000
    5      0.31950410004757     0.31950410004757     0.00000000000000
    6     -1.31325809924908    -0.00000000000000     1.31325809924908
    7     -0.00000000000000    -1.31325809924908     1.31325809924908
    8     -0.00000000000000    -0.00000000000000     0.00000000000000
    9     -1.31325809924908     1.31325809924908     0.00000000000000
   10      0.31950410004757    -0.00000000000000     0.31950410004757
   11     -0.00000000000000     1.31325809924908    -1.31325809924908
   12     -0.00000000000000    -0.00000000000000     0.00000000000000
   13      0.31950410004757    -0.31950410004757     0.00000000000000
   14      0.31950410004757    -0.00000000000000    -0.31950410004757
   15     -0.00000000000000     1.31325809924908     1.31325809924908
   16     -0.00000000000000    -0.00000000000000     0.00000000000000
   17      1.31325809924908    -1.31325809924908     0.00000000000000
   18      1.31325809924908    -0.00000000000000    -1.31325809924908
   19     -0.00000000000000     0.31950410004757     0.31950410004757
   20     -0.00000000000000    -0.00000000000000     0.00000000000000
   21     -0.31950410004757     0.31950410004757     0.00000000000000
   22      1.31325809924908    -0.00000000000000     1.31325809924908
   23     -0.00000000000000     0.31950410004757    -0.31950410004757
   24     -0.00000000000000    -0.00000000000000     0.00000000000000
   25      1.31325809924908     1.31325809924908     0.00000000000000
   26     -0.31950410004757    -0.00000000000000     0.31950410004757
   27     -0.00000000000000    -0.31950410004757     0.31950410004757
   28     -0.00000000000000    -0.00000000000000     0.00000000000000
   29     -0.31950410004757    -0.31950410004757     0.00000000000000
   30     -0.31950410004757    -0.00000000000000    -0.31950410004757
   31     -0.00000000000000    -0.31950410004757    -0.31950410004757
 frms,max,avg= 6.8659604E-01 1.3132581E+00   0.000E+00  0.000E+00  0.000E+00 e/A
 length scales= 15.340000000000 15.340000000000 15.340000000000 bohr
              =  8.117578379771  8.117578379771  8.117578379771 angstroms
 Fermi (or HOMO) energy (hartree) =   0.39065   Average Vxc (hartree)=  -0.49570
 Eigenvalues (hartree) for nkpt=   1  k points:
 kpt#   1, nband=192, wtk=  1.00000, kpt=  0.0000  0.0000  0.0000 (reduced coord)
  -0.78407   -0.72613   -0.72613   -0.72058   -0.72058   -0.72058   -0.70836   -0.67947
  -0.67947   -0.67317   -0.67317   -0.67317   -0.67314   -0.67290   -0.67290   -0.67290
  -0.66986   -0.66986   -0.66986   -0.66252   -0.66252   -0.66252   -0.63137   -0.61895
  -0.61806   -0.61806   -0.61435   -0.61435   -0.61280   -0.61280   -0.61280   -0.33392
  -0.32895   -0.32895   -0.32895   -0.30077   -0.30077   -0.30077   -0.23773   -0.23661
  -0.23661   -0.23661   -0.23104   -0.23104   -0.23104   -0.23042   -0.23042   -0.23042
  -0.22869   -0.22869   -0.22849   -0.22849   -0.22849   -0.22787   -0.22787   -0.22787
  -0.22437   -0.22437   -0.22437   -0.20403   -0.20403   -0.20403   -0.15899   -0.15899
  -0.15869   -0.15869   -0.15869   -0.15566   -0.14972   -0.14972   -0.14972   -0.14818
  -0.14818   -0.14818   -0.14663   -0.13817   -0.13817   -0.13422   -0.13422   -0.13422
  -0.13048   -0.12298   -0.12298   -0.11521   -0.11521   -0.11521   -0.09752   -0.09752
  -0.09752   -0.07526   -0.07526   -0.07526   -0.03847   -0.03847   -0.03847   -0.03801
  -0.03801   -0.03801   -0.03323   -0.03323   -0.03323   -0.02029   -0.02029   -0.02029
  -0.00436   -0.00436   -0.00436   -0.00269   -0.00233   -0.00233   -0.00233   -0.00192
  -0.00192   -0.00192    0.00264    0.00264    0.00327    0.00327    0.00662    0.00662
   0.00662    0.05262    0.05262    0.05262    0.21684    0.23244    0.23244    0.24537
   0.24537    0.24537    0.31469    0.31855    0.31855    0.32861    0.32861    0.32861
   0.32956    0.36303    0.36303    0.36303    0.36627    0.37805    0.37805    0.37805
   0.38025    0.38025    0.38217    0.38217    0.38217    0.38449    0.38489    0.38489
   0.38489    0.39136    0.39136    0.39212    0.39212    0.39212    0.39404    0.39404
   0.39404    0.40314    0.42650    0.42650    0.46380    0.46386    0.46394    0.46526
   0.46533    0.46536    0.48303    0.48597    0.48611    0.48635    0.49458    0.49813
   0.51043    0.51319    0.52082    0.52914    0.53163    0.53479    0.53621    0.54243
   0.54351    0.54730    0.55852    0.57398    0.58433    0.60148    0.63706    0.72073
      occupation numbers for kpt#   1
   2.00000    2.00000    2.00000    2.00000    2.00000    2.00000    2.00000    2.00000
   2.00000    2.00000    2.00000    2.00000    2.00000    2.00000    2.00000    2.00000
   2.00000    2.00000    2.00000    2.00000    2.00000    2.00000    2.00000    2.00000
   2.00000    2.00000    2.00000    2.00000    2.00000    2.00000    2.00000    2.00000
   2.00000    2.00000    2.00000    2.00000    2.00000    2.00000    2.00000    2.00000
   2.00000    2.00000    2.00000    2.00000    2.00000    2.00000    2.00000    2.00000
   2.00000    2.00000    2.00000    2.00000    2.00000    2.00000    2.00000    2.00000
   2.00000    2.00000    2.00000    2.00000    2.00000    2.00000    2.00000    2.00000
   2.00000    2.00000    2.00000    2.00000    2.00000    2.00000    2.00000    2.00000
   2.00000    2.00000    2.00000    2.00000    2.00000    2.00000    2.00000    2.00000
   2.00000    2.00000    2.00000    2.00000    2.00000    2.00000    2.00000    2.00000
   2.00000    2.00000    2.00000    2.00000    2.00000    2.00000    2.00000    2.00000
   2.00000    2.00000    2.00000    2.00000    2.00000    2.00000    2.00000    2.00000
   2.00000    2.00000    2.00000    2.00000    2.00000    2.00000    2.00000    2.00000
   2.00000    2.00000    2.00000    2.00000    2.00000    2.00000    2.00000    2.00000
   2.00000    2.00000    2.00000    2.00000    2.00000    2.00000    2.00000    2.00000
   2.00000    2.00000    2.00000    2.00000    2.00000    2.00000    2.00000    2.00000
   2.00000    2.00000    2.00000    2.00000    1.99999    1.99632    1.99632    1.99632
   1.98904    1.98904    1.97158    1.97158    1.97158    1.91184    1.89359    1.89359
   1.89358    0.82457    0.82456    0.64791    0.64791    0.64790    0.30965    0.30964
   0.30964    0.00388    0.00000    0.00000    0.00000    0.00000    0.00000    0.00000
   0.00000    0.00000    0.00000    0.00000    0.00000    0.00000    0.00000    0.00000
   0.00000    0.00000    0.00000    0.00000    0.00000    0.00000    0.00000    0.00000
   0.00000    0.00000    0.00000    0.00000    0.00000    0.00000    0.00000    0.00000
 
--------------------------------------------------------------------------------
 Components of total free energy (in Hartree) :
 
    Kinetic energy  =  3.06298585300614E+02
    Hartree energy  =  3.63342047489059E+01
    XC energy       = -1.89095373546866E+02
    Ewald energy    = -9.05896420881061E+02
    PspCore energy  =  1.58170863145425E+02
    Loc. psp. energy= -1.22019061726696E+02
    Spherical terms = -8.41967447036711E+01
    >>>>> Internal E= -8.00403947663349E+02
 
    -kT*entropy     = -2.27523452950843E-02
    >>>>>>>>> Etotal= -8.00426700008645E+02
 
 "Double-counting" decomposition of free energy:
    Band energy     = -4.40502591503821E+01
    Ewald energy    =-9.05896420881061E+02
    PspCore energy  =  1.58170863145425E+02
    Dble-C XC-energy=  1.75596259186778E+01
    Spherical terms = -2.61881467609294E+01
    >>>>> Internal E= -8.00404337728270E+02
 
    -kT*entropy     = -2.27523452950843E-02
    >>>> Etotal (DC)= -8.00427090073565E+02
 
  >Total energy in eV           = -2.17807181857283E+04
  >Total DC energy in eV        = -2.17807287999346E+04
--------------------------------------------------------------------------------
 
 
 
 
 
 Cartesian components of stress tensor (hartree/bohr^3)
  sigma(1 1)= -4.33629281E-03  sigma(3 2)=  0.00000000E+00
  sigma(2 2)= -4.33629281E-03  sigma(3 1)=  0.00000000E+00
  sigma(3 3)= -4.33629281E-03  sigma(2 1)=  0.00000000E+00
 
-Cartesian components of stress tensor (GPa)         [Pressure=  1.2758E+02 GPa]
- sigma(1 1)= -1.27578118E+02  sigma(3 2)=  0.00000000E+00
- sigma(2 2)= -1.27578118E+02  sigma(3 1)=  0.00000000E+00
- sigma(3 3)= -1.27578118E+02  sigma(2 1)=  0.00000000E+00
 
== END DATASET(S) ==============================================================
================================================================================
  
 -outvars: echo values of variables after computation  --------
-          iomode           1
            acell      1.5340000000E+01  1.5340000000E+01  1.5340000000E+01 Bohr
              amu      1.37327000E+02
           bandpp         192
      chksymbreak           0
     densfor_pred           6
             ecut      8.00000000E+00 Hartree
           etotal     -8.0042709007E+02
            fcart     -2.5538806063E-02 -2.5538806063E-02  3.9171175264E-19
                      -2.5538806063E-02 -2.5181469812E-19 -2.5538806063E-02
                      -1.3989705451E-19 -2.5538806063E-02 -2.5538806063E-02
                      -1.3989705451E-19 -2.5181469813E-19  3.9171175264E-19
                       6.2133660187E-03  6.2133660187E-03  3.9171175264E-19
                      -2.5538806063E-02 -2.5181469812E-19  2.5538806063E-02
                      -1.3989705451E-19 -2.5538806063E-02  2.5538806063E-02
                      -1.3989705451E-19 -2.5181469813E-19  3.9171175264E-19
                      -2.5538806063E-02  2.5538806063E-02  3.9171175264E-19
                       6.2133660187E-03 -2.5181469813E-19  6.2133660187E-03
                      -1.3989705452E-19  2.5538806063E-02 -2.5538806063E-02
                      -1.3989705451E-19 -2.5181469813E-19  3.9171175264E-19
                       6.2133660187E-03 -6.2133660187E-03  3.9171175264E-19
                       6.2133660187E-03 -2.5181469813E-19 -6.2133660187E-03
                      -1.3989705452E-19  2.5538806063E-02  2.5538806063E-02
                      -1.3989705451E-19 -2.5181469813E-19  3.9171175264E-19
                       2.5538806063E-02 -2.5538806063E-02  3.9171175265E-19
                       2.5538806063E-02 -2.5181469813E-19 -2.5538806063E-02
                      -1.3989705451E-19  6.2133660187E-03  6.2133660187E-03
                      -1.3989705451E-19 -2.5181469813E-19  3.9171175264E-19
                      -6.2133660187E-03  6.2133660187E-03  3.9171175264E-19
                       2.5538806063E-02 -2.5181469813E-19  2.5538806063E-02
                      -1.3989705452E-19  6.2133660187E-03 -6.2133660187E-03
                      -1.3989705451E-19 -2.5181469813E-19  3.9171175264E-19
                       2.5538806063E-02  2.5538806063E-02  3.9171175264E-19
                      -6.2133660187E-03 -2.5181469813E-19  6.2133660187E-03
                      -1.3989705451E-19 -6.2133660187E-03  6.2133660187E-03
                      -1.3989705451E-19 -2.5181469813E-19  3.9171175264E-19
                      -6.2133660187E-03 -6.2133660187E-03  3.9171175264E-19
                      -6.2133660187E-03 -2.5181469813E-19 -6.2133660187E-03
                      -1.3989705451E-19 -6.2133660187E-03 -6.2133660187E-03
-          fftalg         312
           istwfk        1
              ixc           7
           kptopt           0
P           mkmem           1
            natom          31
            nband         192
            ngfft          40      40      40
          ngfftdg          45      45      45
             nkpt           1
            nstep          40
             nsym          48
           ntypat           1
              occ      2.000000  2.000000  2.000000  2.000000  2.000000  2.000000
                       2.000000  2.000000  2.000000  2.000000  2.000000  2.000000
                       2.000000  2.000000  2.000000  2.000000  2.000000  2.000000
                       2.000000  2.000000  2.000000  2.000000  2.000000  2.000000
                       2.000000  2.000000  2.000000  2.000000  2.000000  2.000000
                       2.000000  2.000000  2.000000  2.000000  2.000000  2.000000
                       2.000000  2.000000  2.000000  2.000000  2.000000  2.000000
                       2.000000  2.000000  2.000000  2.000000  2.000000  2.000000
                       2.000000  2.000000  2.000000  2.000000  2.000000  2.000000
                       2.000000  2.000000  2.000000  2.000000  2.000000  2.000000
                       2.000000  2.000000  2.000000  2.000000  2.000000  2.000000
                       2.000000  2.000000  2.000000  2.000000  2.000000  2.000000
                       2.000000  2.000000  2.000000  2.000000  2.000000  2.000000
                       2.000000  2.000000  2.000000  2.000000  2.000000  2.000000
                       2.000000  2.000000  2.000000  2.000000  2.000000  2.000000
                       2.000000  2.000000  2.000000  2.000000  2.000000  2.000000
                       2.000000  2.000000  2.000000  2.000000  2.000000  2.000000
                       2.000000  2.000000  2.000000  2.000000  2.000000  2.000000
                       2.000000  2.000000  2.000000  2.000000  2.000000  2.000000
                       2.000000  2.000000  2.000000  2.000000  2.000000  2.000000
                       2.000000  2.000000  2.000000  2.000000  2.000000  2.000000
                       2.000000  2.000000  2.000000  2.000000  2.000000  2.000000
                       2.000000  2.000000  2.000000  2.000000  2.000000  1.999998
                       1.999998  1.999998  1.999990  1.996321  1.996321  1.996321
                       1.989040  1.989040  1.971578  1.971577  1.971577  1.911842
                       1.893588  1.893586  1.893585  0.824565  0.824563  0.647908
                       0.647905  0.647898  0.309645  0.309641  0.309638  0.003875
                       0.000000  0.000000  0.000000  0.000000  0.000000  0.000000
                       0.000000  0.000000  0.000000  0.000000  0.000000  0.000000
                       0.000000  0.000000  0.000000  0.000000  0.000000  0.000000
                       0.000000  0.000000  0.000000  0.000000  0.000000  0.000000
                       0.000000  0.000000  0.000000  0.000000  0.000000  0.000000
           occopt           3
        paral_kgb           1
        pawecutdg      1.00000000E+01 Hartree
           prtden           0
           prteig           0
            prtwf           0
          spgroup         221
           strten     -4.3362928147E-03 -4.3362928147E-03 -4.3362928147E-03
                       0.0000000000E+00  0.0000000000E+00  0.0000000000E+00
           symrel      1  0  0   0  1  0   0  0  1      -1  0  0   0 -1  0   0  0 -1
                      -1  0  0   0  1  0   0  0 -1       1  0  0   0 -1  0   0  0  1
                      -1  0  0   0 -1  0   0  0  1       1  0  0   0  1  0   0  0 -1
                       1  0  0   0 -1  0   0  0 -1      -1  0  0   0  1  0   0  0  1
                       0  1  0   1  0  0   0  0  1       0 -1  0  -1  0  0   0  0 -1
                       0 -1  0   1  0  0   0  0 -1       0  1  0  -1  0  0   0  0  1
                       0 -1  0  -1  0  0   0  0  1       0  1  0   1  0  0   0  0 -1
                       0  1  0  -1  0  0   0  0 -1       0 -1  0   1  0  0   0  0  1
                       0  0  1   1  0  0   0  1  0       0  0 -1  -1  0  0   0 -1  0
                       0  0 -1   1  0  0   0 -1  0       0  0  1  -1  0  0   0  1  0
                       0  0 -1  -1  0  0   0  1  0       0  0  1   1  0  0   0 -1  0
                       0  0  1  -1  0  0   0 -1  0       0  0 -1   1  0  0   0  1  0
                       1  0  0   0  0  1   0  1  0      -1  0  0   0  0 -1   0 -1  0
                      -1  0  0   0  0  1   0 -1  0       1  0  0   0  0 -1   0  1  0
                      -1  0  0   0  0 -1   0  1  0       1  0  0   0  0  1   0 -1  0
                       1  0  0   0  0 -1   0 -1  0      -1  0  0   0  0  1   0  1  0
                       0  1  0   0  0  1   1  0  0       0 -1  0   0  0 -1  -1  0  0
                       0 -1  0   0  0  1  -1  0  0       0  1  0   0  0 -1   1  0  0
                       0 -1  0   0  0 -1   1  0  0       0  1  0   0  0  1  -1  0  0
                       0  1  0   0  0 -1  -1  0  0       0 -1  0   0  0  1   1  0  0
                       0  0  1   0  1  0   1  0  0       0  0 -1   0 -1  0  -1  0  0
                       0  0 -1   0  1  0  -1  0  0       0  0  1   0 -1  0   1  0  0
                       0  0 -1   0 -1  0   1  0  0       0  0  1   0  1  0  -1  0  0
                       0  0  1   0 -1  0  -1  0  0       0  0 -1   0  1  0   1  0  0
           timopt          -3
           toldfe      1.00000000E-05 Hartree
           tsmear      2.00000000E-03 Hartree
            typat      1  1  1  1  1  1  1  1  1  1  1  1  1  1  1  1  1  1  1  1
                       1  1  1  1  1  1  1  1  1  1  1
           useylm           1
         wfoptalg           1
           xangst      2.0293945949E+00  2.0293945949E+00  0.0000000000E+00
                       2.0293945949E+00  0.0000000000E+00  2.0293945949E+00
                       0.0000000000E+00  2.0293945949E+00  2.0293945949E+00
                       0.0000000000E+00  0.0000000000E+00  4.0587891899E+00
                       2.0293945949E+00  2.0293945949E+00  4.0587891899E+00
                       2.0293945949E+00  0.0000000000E+00  6.0881837848E+00
                       0.0000000000E+00  2.0293945949E+00  6.0881837848E+00
                       0.0000000000E+00  4.0587891899E+00  0.0000000000E+00
                       2.0293945949E+00  6.0881837848E+00  0.0000000000E+00
                       2.0293945949E+00  4.0587891899E+00  2.0293945949E+00
                       0.0000000000E+00  6.0881837848E+00  2.0293945949E+00
                       0.0000000000E+00  4.0587891899E+00  4.0587891899E+00
                       2.0293945949E+00  6.0881837848E+00  4.0587891899E+00
                       2.0293945949E+00  4.0587891899E+00  6.0881837848E+00
                       0.0000000000E+00  6.0881837848E+00  6.0881837848E+00
                       4.0587891899E+00  0.0000000000E+00  0.0000000000E+00
                       6.0881837848E+00  2.0293945949E+00  0.0000000000E+00
                       6.0881837848E+00  0.0000000000E+00  2.0293945949E+00
                       4.0587891899E+00  2.0293945949E+00  2.0293945949E+00
                       4.0587891899E+00  0.0000000000E+00  4.0587891899E+00
                       6.0881837848E+00  2.0293945949E+00  4.0587891899E+00
                       6.0881837848E+00  0.0000000000E+00  6.0881837848E+00
                       4.0587891899E+00  2.0293945949E+00  6.0881837848E+00
                       4.0587891899E+00  4.0587891899E+00  0.0000000000E+00
                       6.0881837848E+00  6.0881837848E+00  0.0000000000E+00
                       6.0881837848E+00  4.0587891899E+00  2.0293945949E+00
                       4.0587891899E+00  6.0881837848E+00  2.0293945949E+00
                       4.0587891899E+00  4.0587891899E+00  4.0587891899E+00
                       6.0881837848E+00  6.0881837848E+00  4.0587891899E+00
                       6.0881837848E+00  4.0587891899E+00  6.0881837848E+00
                       4.0587891899E+00  6.0881837848E+00  6.0881837848E+00
            xcart      3.8350000000E+00  3.8350000000E+00  0.0000000000E+00
                       3.8350000000E+00  0.0000000000E+00  3.8350000000E+00
                       0.0000000000E+00  3.8350000000E+00  3.8350000000E+00
                       0.0000000000E+00  0.0000000000E+00  7.6700000000E+00
                       3.8350000000E+00  3.8350000000E+00  7.6700000000E+00
                       3.8350000000E+00  0.0000000000E+00  1.1505000000E+01
                       0.0000000000E+00  3.8350000000E+00  1.1505000000E+01
                       0.0000000000E+00  7.6700000000E+00  0.0000000000E+00
                       3.8350000000E+00  1.1505000000E+01  0.0000000000E+00
                       3.8350000000E+00  7.6700000000E+00  3.8350000000E+00
                       0.0000000000E+00  1.1505000000E+01  3.8350000000E+00
                       0.0000000000E+00  7.6700000000E+00  7.6700000000E+00
                       3.8350000000E+00  1.1505000000E+01  7.6700000000E+00
                       3.8350000000E+00  7.6700000000E+00  1.1505000000E+01
                       0.0000000000E+00  1.1505000000E+01  1.1505000000E+01
                       7.6700000000E+00  0.0000000000E+00  0.0000000000E+00
                       1.1505000000E+01  3.8350000000E+00  0.0000000000E+00
                       1.1505000000E+01  0.0000000000E+00  3.8350000000E+00
                       7.6700000000E+00  3.8350000000E+00  3.8350000000E+00
                       7.6700000000E+00  0.0000000000E+00  7.6700000000E+00
                       1.1505000000E+01  3.8350000000E+00  7.6700000000E+00
                       1.1505000000E+01  0.0000000000E+00  1.1505000000E+01
                       7.6700000000E+00  3.8350000000E+00  1.1505000000E+01
                       7.6700000000E+00  7.6700000000E+00  0.0000000000E+00
                       1.1505000000E+01  1.1505000000E+01  0.0000000000E+00
                       1.1505000000E+01  7.6700000000E+00  3.8350000000E+00
                       7.6700000000E+00  1.1505000000E+01  3.8350000000E+00
                       7.6700000000E+00  7.6700000000E+00  7.6700000000E+00
                       1.1505000000E+01  1.1505000000E+01  7.6700000000E+00
                       1.1505000000E+01  7.6700000000E+00  1.1505000000E+01
                       7.6700000000E+00  1.1505000000E+01  1.1505000000E+01
             xred      2.5000000000E-01  2.5000000000E-01  0.0000000000E+00
                       2.5000000000E-01  0.0000000000E+00  2.5000000000E-01
                       0.0000000000E+00  2.5000000000E-01  2.5000000000E-01
                       0.0000000000E+00  0.0000000000E+00  5.0000000000E-01
                       2.5000000000E-01  2.5000000000E-01  5.0000000000E-01
                       2.5000000000E-01  0.0000000000E+00  7.5000000000E-01
                       0.0000000000E+00  2.5000000000E-01  7.5000000000E-01
                       0.0000000000E+00  5.0000000000E-01  0.0000000000E+00
                       2.5000000000E-01  7.5000000000E-01  0.0000000000E+00
                       2.5000000000E-01  5.0000000000E-01  2.5000000000E-01
                       0.0000000000E+00  7.5000000000E-01  2.5000000000E-01
                       0.0000000000E+00  5.0000000000E-01  5.0000000000E-01
                       2.5000000000E-01  7.5000000000E-01  5.0000000000E-01
                       2.5000000000E-01  5.0000000000E-01  7.5000000000E-01
                       0.0000000000E+00  7.5000000000E-01  7.5000000000E-01
                       5.0000000000E-01  0.0000000000E+00  0.0000000000E+00
                       7.5000000000E-01  2.5000000000E-01  0.0000000000E+00
                       7.5000000000E-01  0.0000000000E+00  2.5000000000E-01
                       5.0000000000E-01  2.5000000000E-01  2.5000000000E-01
                       5.0000000000E-01  0.0000000000E+00  5.0000000000E-01
                       7.5000000000E-01  2.5000000000E-01  5.0000000000E-01
                       7.5000000000E-01  0.0000000000E+00  7.5000000000E-01
                       5.0000000000E-01  2.5000000000E-01  7.5000000000E-01
                       5.0000000000E-01  5.0000000000E-01  0.0000000000E+00
                       7.5000000000E-01  7.5000000000E-01  0.0000000000E+00
                       7.5000000000E-01  5.0000000000E-01  2.5000000000E-01
                       5.0000000000E-01  7.5000000000E-01  2.5000000000E-01
                       5.0000000000E-01  5.0000000000E-01  5.0000000000E-01
                       7.5000000000E-01  7.5000000000E-01  5.0000000000E-01
                       7.5000000000E-01  5.0000000000E-01  7.5000000000E-01
                       5.0000000000E-01  7.5000000000E-01  7.5000000000E-01
            znucl       56.00000
 
================================================================================
 
 Test the timer : 
  a combined call timab(*,1,tsec) + timab(*,2,tsec) is 
- CPU time =    5.0879E-06 sec,    Wall time =    5.0890E-06 sec

- Total cpu        time (s,m,h):        420.0        7.00      0.117
- Total wall clock time (s,m,h):        420.8        7.01      0.117
-
- For major independent code sections, cpu and wall times (sec),
-  as well as % of the time and number of calls for node 0-
-<BEGIN_TIMER mpi_nprocs = 1, omp_nthreads = 1, mpi_rank = 0>
- cpu_time =          420.0, wall_time =          420.8
-
- routine                        cpu     %       wall     %      number of calls  Gflops    Speedup Efficacity
-                                                                  (-1=no count)
- nonlop(apply)                268.382  63.9    268.847  63.9            325      -1.00        1.00       1.00
- fourwf%(pot)                  36.910   8.8     36.946   8.8            125      -1.00        1.00       1.00
- vtowfk(contrib)               14.211   3.4     14.234   3.4             23      -1.00        1.00       1.00
- mkrho/=                        3.634   0.9      3.639   0.9             46      -1.00        1.00       1.00
- pawdenpot                      3.175   0.8      3.176   0.8             23      -1.00        1.00       1.00
- pawmkrho                       1.743   0.4      1.748   0.4             23      -1.00        1.00       1.00
- pawdij/symdij                  1.656   0.4      1.660   0.4             23      -1.00        1.00       1.00
- pawmkrho:symrhoij              1.541   0.4      1.546   0.4             23      -1.00        1.00       1.00
- pspini                         0.868   0.2      0.869   0.2              1      -1.00        1.00       1.00
- getghc-other                   0.841   0.2      0.841   0.2             -1      -1.00        1.00       1.00
- chebfi(alltoall)               0.576   0.1      0.577   0.1             50      -1.00        1.00       1.00
- ewald                          0.490   0.1      0.490   0.1              1      -1.00        1.00       1.00
- fourdp                         0.389   0.1      0.407   0.1            213      -1.00        0.96       0.96
- vtorho:pawmkrhoij              0.369   0.1      0.369   0.1             23      -1.00        1.00       1.00
- pawinit                        0.362   0.1      0.362   0.1              2      -1.00        1.00       1.00
- xc:pot/=fourdp                 0.286   0.1      0.290   0.1             24      -1.00        0.99       0.99
- stress                         0.266   0.1      0.266   0.1              1      -1.00        1.00       1.00
- ewald2 (+vdw_dftd)             0.246   0.1      0.246   0.1              1      -1.00        1.00       1.00
- timing timab                   0.130   0.0      0.130   0.0              9      -1.00        1.00       1.00
- nhatgrid                       0.110   0.0      0.110   0.0              2      -1.00        1.00       1.00
- vtowfk  (1)                    0.091   0.0      0.091   0.0             23      -1.00        1.00       1.00
- symrhg(no FFT)                 0.085   0.0      0.086   0.0             23      -1.00        1.00       1.00
- invars2                        0.075   0.0      0.076   0.0              1      -1.00        0.99       0.99
- newkpt(excl. rwwf   )          0.059   0.0      0.059   0.0             -1      -1.00        1.00       1.00
- abinit(2)                      0.055   0.0      0.055   0.0              1      -1.00        0.99       0.99
- forces                         0.040   0.0      0.041   0.0              1      -1.00        1.00       1.00
- vtowfk(ssdiag)                 0.021   0.0      0.021   0.0             -1      -1.00        1.01       1.01
- prep_bandfft_tabs              0.020   0.0      0.020   0.0              2      -1.00        1.00       1.00
- setsym                         0.008   0.0      0.008   0.0              1      -1.00        1.00       1.00
- scfcv-scprqt                   0.003   0.0      0.068   0.0             23      -1.00        0.05       0.05
- others (105)                   0.000   0.0      0.000   0.0             -1      -1.00        1.01       1.01
-<END_TIMER>
-
- subtotal                     336.642  80.2    337.278  80.2                                  1.00       1.00

- For major independent code sections, cpu and wall times (sec),
- as well as % of the total time and number of calls 

-<BEGIN_TIMER mpi_nprocs = 1, omp_nthreads = 1, mpi_rank = world>
- cpu_time =         420.0, wall_time =         420.8
-
- routine                         cpu     %       wall     %      number of calls Gflops    Speedup Efficacity
-                                                                  (-1=no count)
- nonlop(apply)                268.382  63.9    268.847  63.9            325      -1.00        1.00       1.00
- fourwf%(pot)                  36.910   8.8     36.946   8.8            125      -1.00        1.00       1.00
- vtowfk(contrib)               14.211   3.4     14.234   3.4             23      -1.00        1.00       1.00
- mkrho/=                        3.634   0.9      3.639   0.9             46      -1.00        1.00       1.00
- pawdenpot                      3.175   0.8      3.176   0.8             23      -1.00        1.00       1.00
- pawmkrho                       1.743   0.4      1.748   0.4             23      -1.00        1.00       1.00
- pawdij/symdij                  1.656   0.4      1.660   0.4             23      -1.00        1.00       1.00
- pawmkrho:symrhoij              1.541   0.4      1.546   0.4             23      -1.00        1.00       1.00
- pspini                         0.868   0.2      0.869   0.2              1      -1.00        1.00       1.00
- getghc-other                   0.841   0.2      0.841   0.2             -1      -1.00        1.00       1.00
- chebfi(alltoall)               0.576   0.1      0.577   0.1             50      -1.00        1.00       1.00
- ewald                          0.490   0.1      0.490   0.1              1      -1.00        1.00       1.00
- fourdp                         0.389   0.1      0.407   0.1            213      -1.00        0.96       0.96
- vtorho:pawmkrhoij              0.369   0.1      0.369   0.1             23      -1.00        1.00       1.00
- pawinit                        0.362   0.1      0.362   0.1              2      -1.00        1.00       1.00
- xc:pot/=fourdp                 0.286   0.1      0.290   0.1             24      -1.00        0.99       0.99
- stress                         0.266   0.1      0.266   0.1              1      -1.00        1.00       1.00
- ewald2 (+vdw_dftd)             0.246   0.1      0.246   0.1              1      -1.00        1.00       1.00
- timing timab                   0.130   0.0      0.130   0.0              9      -1.00        1.00       1.00
- nhatgrid                       0.110   0.0      0.110   0.0              2      -1.00        1.00       1.00
- vtowfk  (1)                    0.091   0.0      0.091   0.0             23      -1.00        1.00       1.00
- symrhg(no FFT)                 0.085   0.0      0.086   0.0             23      -1.00        1.00       1.00
- invars2                        0.075   0.0      0.076   0.0              1      -1.00        0.99       0.99
- newkpt(excl. rwwf   )          0.059   0.0      0.059   0.0             -1      -1.00        1.00       1.00
- abinit(2)                      0.055   0.0      0.055   0.0              1      -1.00        0.99       0.99
- forces                         0.040   0.0      0.041   0.0              1      -1.00        1.00       1.00
- vtowfk(ssdiag)                 0.021   0.0      0.021   0.0             -1      -1.00        1.01       1.01
- prep_bandfft_tabs              0.020   0.0      0.020   0.0              2      -1.00        1.00       1.00
- setsym                         0.008   0.0      0.008   0.0              1      -1.00        1.00       1.00
- scfcv-scprqt                   0.003   0.0      0.068   0.0             23      -1.00        0.05       0.05
- others (105)                   0.000   0.0      0.000   0.0             -1      -1.00        1.01       1.01
-<END_TIMER>

- subtotal                     336.642  80.2    337.278  80.2                                  1.00       1.00

 Partitioning of abinit
- abinit                       419.952 100.0    420.767 100.0              1                   1.00       1.00
 
- abinit(4)                      0.150   0.0      0.153   0.0              1                   0.98       0.98
- driver                       419.620  99.9    420.433  99.9              1                   1.00       1.00
- timing timab                   0.130   0.0      0.130   0.0              9                   1.00       1.00

- subtotal                     419.952 100.0    420.767 100.0                                  1.00       1.00

 Partitioning of driver
- driver                       419.620  99.9    420.433  99.9              1                   1.00       1.00
 
- gstateimg                    419.620  99.9    420.432  99.9              1                   1.00       1.00

- subtotal                     419.620  99.9    420.433  99.9                                  1.00       1.00

 Partitioning of gstateimg+gstate
- gstateimg                    419.620  99.9    420.432  99.9              1                   1.00       1.00
 
- gstate(pspini)                 0.868   0.2      0.869   0.2              1                   1.00       1.00
- gstate  (2)                    0.225   0.1      0.242   0.1              1                   0.93       0.93
- gstate(...scfcv)             418.441  99.6    419.235  99.6              1                   1.00       1.00

- subtotal                     419.619  99.9    420.432  99.9                                  1.00       1.00

 Partitioning of scfcv_core
- scfcv_core                   418.441  99.6    419.235  99.6              1                   1.00       1.00
 
- scfcv_core(iniloop, setv       0.556   0.1      0.556   0.1             23                   1.00       1.00
- scfcv_core(loop, PAW)          4.838   1.2      4.843   1.2             23                   1.00       1.00
- scfcv_core(vtorho(f))        399.922  95.2    400.635  95.2             23                   1.00       1.00
- scfcv_core(mix den - new       0.310   0.1      0.317   0.1             22                   0.98       0.98
- scfcv_core(rhotov)             0.484   0.1      0.488   0.1             22                   0.99       0.99
- scfcv_core(afterscfloop)      12.292   2.9     12.292   2.9              1                   1.00       1.00

- subtotal                     418.441  99.6    419.235  99.6                                  1.00       1.00

 Partitioning of rhotov
- rhotov                         0.403   0.1      0.407   0.1             22                   0.99       0.99
 
- rhotov(rhotoxc)                0.273   0.1      0.277   0.1             22                   0.99       0.99

- subtotal                       0.403   0.1      0.407   0.1                                  0.99       0.99

 Partitioning of vtorho
- vtorho                       399.922  95.2    400.635  95.2             23                   1.00       1.00
 
- vtorho(bef. kpt  loop)         0.107   0.0      0.107   0.0             23                   1.00       1.00
- vtorho(bef. vtowfk)            0.694   0.2      0.694   0.2             23                   1.00       1.00
- vtowfk                       392.439  93.4    393.139  93.4             23                   1.00       1.00
- vtorho(newocc)                 0.694   0.2      0.696   0.2             23                   1.00       1.00
- vtorho(mkrho 1)                3.776   0.9      3.782   0.9             23                   1.00       1.00
- vtorho(mkrho 2)                2.138   0.5      2.144   0.5             23                   1.00       1.00
- mkinvovl                       0.676   0.2      0.676   0.2              1                   1.00       1.00

- subtotal                     399.922  95.2    400.635  95.2                                  1.00       1.00

 Partitioning of vtowfk
- vtowfk                       392.439  93.4    393.139  93.4             23                   1.00       1.00
 
- vtowfk  (1)                    0.091   0.0      0.091   0.0             23                   1.00       1.00
- prep_nonlop%vtowfk            13.976   3.3     13.999   3.3             23                   1.00       1.00
- vtowfk(3)                      0.235   0.1      0.235   0.1             -1                   1.00       1.00
- chebfi                       378.116  90.0    378.793  90.0             25                   1.00       1.00

- subtotal                     392.439  93.4    393.139  93.4                                  1.00       1.00

 Partitioning of getghc
- getghc                       168.786  40.2    169.032  40.2            125                   1.00       1.00
 
- fourwf%getghc                 36.910   8.8     36.946   8.8            125                   1.00       1.00
- nonlop%getghc                131.035  31.2    131.245  31.2            125                   1.00       1.00
- getghc-other                   0.841   0.2      0.841   0.2             -1                   1.00       1.00

- subtotal                     168.786  40.2    169.032  40.2                                  1.00       1.00

 Partitioning of fourwf (upwards partitioning)
- fourwf                        40.053   9.5     40.102   9.5           3869                   1.00       1.00
 
- fourwf%getghc                 36.910   8.8     36.946   8.8            125                   1.00       1.00
- fourwf%prep_four               3.143   0.7      3.156   0.7           3744                   1.00       1.00

- subtotal                      40.053   9.5     40.102   9.5                                  1.00       1.00

 Partitioning of prep_getghc
- prep_getghc                  172.315  41.0    172.567  41.0            125                   1.00       1.00
 
- prep_getghc(before if)         1.790   0.4      1.792   0.4            125                   1.00       1.00
- prep_getghc(getghc - 2 )     169.323  40.3    169.571  40.3            125                   1.00       1.00
- (other)                        1.202   0.3      1.204   0.3             -1                   1.00       1.00

- subtotal                     172.315  41.0    172.567  41.0                                  1.00       1.00

 Partitioning of prep_fourwf
- prep_fourwf                    3.477   0.8      3.482   0.8             23                   1.00       1.00
 
- fourwf%prep_four               3.143   0.7      3.156   0.7           3744                   1.00       1.00
- alltoall%prep_fo               0.133   0.0      0.133   0.0             23                   1.00       1.00

- subtotal                       3.276   0.8      3.289   0.8                                  1.00       1.00

 Partitioning of prep_nonlop
- prep_nonlop                  164.871  39.3    165.154  39.3            224                   1.00       1.00
 
- nonlop%prep_nonl%vtowfk       13.673   3.3     13.696   3.3             23                   1.00       1.00
- nonlop%prep_nonl%forstrn      11.813   2.8     11.814   2.8              1                   1.00       1.00
- prep_nonlop(alltoall)          0.141   0.0      0.142   0.0             24                   1.00       1.00
- (other)                      139.243  33.2    139.503  33.2             -1                   1.00       1.00

- subtotal                     164.871  39.3    165.154  39.3                                  1.00       1.00

 Partitioning of mkrho (upwards partitioning)
- mkrho                          3.776   0.9      3.781   0.9             23                   1.00       1.00
 
- mkrho%vtorho                   3.776   0.9      3.781   0.9             23                   1.00       1.00

- subtotal                       3.776   0.9      3.781   0.9                                  1.00       1.00

 Partitioning of inwffil
- inwffil                        0.059   0.0      0.059   0.0              1                   1.00       1.00
 

- subtotal                       0.059   0.0      0.059   0.0                                  1.00       1.00

 Partitioning of newkpt
- newkpt                         0.059   0.0      0.059   0.0              1                   1.00       1.00
 

- subtotal                       0.059   0.0      0.059   0.0                                  1.00       1.00

 Partitioning of newrho
- newrho                         0.309   0.1      0.317   0.1             22                   0.98       0.98
 
- fourdp%newrho                  0.096   0.0      0.096   0.0             44                   1.00       1.00

- subtotal                       0.096   0.0      0.096   0.0                                  1.00       1.00

 Partitioning of  fourdp (upwards partitioning)
- fourdp                         0.389   0.1      0.407   0.1            213                   0.96       0.96
 
- fourdp%(other)                 0.293   0.1      0.311   0.1            169                   0.94       0.94
- fourdp%newrho                  0.096   0.0      0.096   0.0             44                   1.00       1.00

- subtotal                       0.389   0.1      0.407   0.1                                  0.96       0.96

 Partitioning of afterscfloop
- afterscfloop                  12.292   2.9     12.292   2.9              1                   1.00       1.00
 
- afterscfloop(forstr)          12.291   2.9     12.291   2.9              1                   1.00       1.00

- subtotal                      12.292   2.9     12.292   2.9                                  1.00       1.00

 Partitioning of forstr
- forstr                        12.207   2.9     12.207   2.9              1                   1.00       1.00
 
- forstr(forstrnps)             11.881   2.8     11.881   2.8              1                   1.00       1.00
- forstr(stress)                 0.266   0.1      0.266   0.1              1                   1.00       1.00

- subtotal                      12.207   2.9     12.207   2.9                                  1.00       1.00

 Partitioning of forstrnps
- forstrnps                     11.881   2.8     11.881   2.8              1                   1.00       1.00
 
- forstrnps(nonlop+prep_ba      11.837   2.8     11.837   2.8              1                   1.00       1.00

- subtotal                      11.881   2.8     11.881   2.8                                  1.00       1.00

 Partitioning of outscfcv
- outscfcv                       0.009   0.0      0.009   0.0              1                   0.99       0.99
 

- subtotal                       0.005   0.0      0.005   0.0                                  0.98       0.98

 Partitioning of chebfi
- chebfi                       378.116  90.0    378.793  90.0             25                   1.00       1.00
 
- chebfi(getghc)               172.318  41.0    172.568  41.0            125                   1.00       1.00
- chebfi(opernla)               63.687  15.2     63.829  15.2            100                   1.00       1.00
- chebfi(opernlb)               75.550  18.0     75.667  18.0            100                   1.00       1.00
- chebfi(inv_s)                 47.498  11.3     47.620  11.3            100                   1.00       1.00
- chebfi(alltoall)               0.576   0.1      0.577   0.1             50                   1.00       1.00
- chebfi(subdiago)               7.055   1.7      7.091   1.7             25                   0.99       0.99
- chebfi(subham)                 4.073   1.0      4.074   1.0             25                   1.00       1.00
- chebfi(residuals)              0.095   0.0      0.096   0.0             25                   1.00       1.00
- chebfi(update_eigens)          0.351   0.1      0.352   0.1             25                   1.00       1.00

- subtotal                     371.204  88.4    371.874  88.4                                  1.00       1.00

 Partitioning of mkinvovl
- mkinvovl                       0.676   0.2      0.676   0.2              1                   1.00       1.00
 
- mkinvovl(build_ptp)            0.626   0.1      0.626   0.1              1                   1.00       1.00

- subtotal                       0.676   0.2      0.676   0.2                                  1.00       1.00
-
-Synchronisation (=leave_test) and MPI calls 
- communic.MPI                   0.001   0.0      0.001   0.0            194                   1.45       1.45
-
- forstrnps:synchr               0.000   0.0      0.000   0.0              2                   0.00       0.00
- mkrho :MPIrhor                 0.000   0.0      0.000   0.0             23                   1.55       1.55
- subtotal                       0.000   0.0      0.000   0.0                                  1.42       1.42

 Additional information
- timana(1)                      0.000   0.0      0.000   0.0              1                   0.68       0.68
- total timab                    0.174   0.0      0.174   0.0          34288                   1.00       1.00
- fourwf                        40.053   9.5     40.102   9.5           3869                   1.00       1.00
- newocc                         0.694   0.2      0.696   0.2             23                   1.00       1.00
- nonlop(total)                293.868  70.0    294.357  70.0            349                   1.00       1.00

 Additional information about PAW segments
- forces:pawatm2ff               0.023   0.0      0.023   0.0              1                   1.00       1.00
- stress:pawatm2ff               0.018   0.0      0.018   0.0              1                   1.00       1.00
- setvtr:pawatm2ff               0.021   0.0      0.021   0.0              1                   1.00       1.00
- pawinit                        0.362   0.1      0.362   0.1              2                   1.00       1.00
- vtowfk:rhoij                  13.976   3.3     13.999   3.3             23                   1.00       1.00
- vtorho:pawmkrhoij              0.369   0.1      0.369   0.1             23                   1.00       1.00
- pawmkrho                       1.743   0.4      1.748   0.4             23                   1.00       1.00
- scfcv_core:mknhat              0.082   0.0      0.082   0.0             23                   1.00       1.00
- nhatgrid                       0.110   0.0      0.110   0.0              2                   1.00       1.00
- pawdenpot                      3.175   0.8      3.176   0.8             23                   1.00       1.00
- pawdij/symdij                  1.656   0.4      1.660   0.4             23                   1.00       1.00


 Detailed analysis of some time consuming routines 
                                  tcpu    ncalls  tcpu/ncalls    ndata tcpu/ncalls/ndata
                                 (sec)                (msec)              (microsec)
- fourwf%(pot)                  36.910       125     295.280    128000       2.307
- fourwf%(den)                   0.000         0
- fourdp                         0.389       213       1.826     64000       0.029
- nonlop(apply)                268.382       325     825.791    120497       6.853
- nonlop(forces)                 0.000         0
- nonlop(forstr)                 0.000         0
- projbd                         0.000         0
- xc:pot/=fourdp                 0.286        24      11.907     64000       0.186

================================================================================

 Suggested references for the acknowledgment of ABINIT usage.

 The users of ABINIT have little formal obligations with respect to the ABINIT group
 (those specified in the GNU General Public License, http://www.gnu.org/copyleft/gpl.txt).
 However, it is common practice in the scientific literature,
 to acknowledge the efforts of people that have made the research possible.
 In this spirit, please find below suggested citations of work written by ABINIT developers,
 corresponding to implementations inside of ABINIT that you have used in the present run.
 Note also that it will be of great value to readers of publications presenting these results,
 to read papers enabling them to understand the theoretical formalism and details
 of the ABINIT implementation.
 For information on why they are suggested, see also https://docs.abinit.org/theory/acknowledgments.
-
- [1] Parallel eigensolvers in plane-wave Density Functional Theory
- A. Levitt and M. Torrent, Computer Phys. Comm. 187, 98-105 (2015).
- Comment : in case Chebyshev Filtering algorithm is used (wfoptalg=1).
- Strong suggestion to cite this paper in your publications.
- DOI and bibtex : see https://docs.abinit.org/theory/bibliography/#levitt2015
-
- [2] Implementation of the Projector Augmented-Wave Method in the ABINIT code.
- M. Torrent, F. Jollet, F. Bottin, G. Zerah, and X. Gonze Comput. Mat. Science 42, 337, (2008).
- Comment : PAW calculations. Strong suggestion to cite this paper.
- DOI and bibtex : see https://docs.abinit.org/theory/bibliography/#torrent2008
-
- [3] Recent developments in the ABINIT software package.
- Computer Phys. Comm. 205, 106 (2016).
- X.Gonze, F.Jollet, F.Abreu Araujo, D.Adams, B.Amadon, T.Applencourt,
- C.Audouze, J.-M.Beuken, J.Bieder, A.Bokhanchuk, E.Bousquet, F.Bruneval
- D.Caliste, M.Cote, F.Dahm, F.Da Pieve, M.Delaveau, M.Di Gennaro,
- B.Dorado, C.Espejo, G.Geneste, L.Genovese, A.Gerossier, M.Giantomassi,
- Y.Gillet, D.R.Hamann, L.He, G.Jomard, J.Laflamme Janssen, S.Le Roux,
- A.Levitt, A.Lherbier, F.Liu, I.Lukacevic, A.Martin, C.Martins,
- M.J.T.Oliveira, S.Ponce, Y.Pouillon, T.Rangel, G.-M.Rignanese,
- A.H.Romero, B.Rousseau, O.Rubel, A.A.Shukri, M.Stankovski, M.Torrent,
- M.J.Van Setten, B.Van Troeye, M.J.Verstraete, D.Waroquier, J.Wiktor,
- B.Xu, A.Zhou, J.W.Zwanziger.
- Comment : the fourth generic paper describing the ABINIT project.
- Note that a version of this paper, that is not formatted for Computer Phys. Comm. 
- is available at https://www.abinit.org/about/ABINIT16.pdf .
- The licence allows the authors to put it on the Web.
- DOI and bibtex : see https://docs.abinit.org/theory/bibliography/#gonze2016
-
- [4] ABINIT : First-principles approach of materials and nanosystem properties.
- Computer Phys. Comm. 180, 2582-2615 (2009).
- X. Gonze, B. Amadon, P.-M. Anglade, J.-M. Beuken, F. Bottin, P. Boulanger, F. Bruneval,
- D. Caliste, R. Caracas, M. Cote, T. Deutsch, L. Genovese, Ph. Ghosez, M. Giantomassi
- S. Goedecker, D.R. Hamann, P. Hermet, F. Jollet, G. Jomard, S. Leroux, M. Mancini, S. Mazevet,
- M.J.T. Oliveira, G. Onida, Y. Pouillon, T. Rangel, G.-M. Rignanese, D. Sangalli, R. Shaltaf,
- M. Torrent, M.J. Verstraete, G. Zerah, J.W. Zwanziger
- Comment : the third generic paper describing the ABINIT project.
- Note that a version of this paper, that is not formatted for Computer Phys. Comm. 
- is available at https://www.abinit.org/about/ABINIT_CPC_v10.pdf .
- The licence allows the authors to put it on the Web.
- DOI and bibtex : see https://docs.abinit.org/theory/bibliography/#gonze2009
-
- [5] A brief introduction to the ABINIT software package.
- Z. Kristallogr. 220, 558-562 (2005).
- X. Gonze, G.-M. Rignanese, M. Verstraete, J.-M. Beuken, Y. Pouillon, R. Caracas, F. Jollet,
- M. Torrent, G. Zerah, M. Mikami, Ph. Ghosez, M. Veithen, J.-Y. Raty, V. Olevano, F. Bruneval,
- L. Reining, R. Godby, G. Onida, D.R. Hamann, and D.C. Allan.
- Comment : the second generic paper describing the ABINIT project. Note that this paper
- should be cited especially if you are using the GW part of ABINIT, as several authors
- of this part are not in the list of authors of the first or third paper.
- The .pdf of the latter paper is available at https://www.abinit.org/about/zfk_0505-06_558-562.pdf.
- Note that it should not redistributed (Copyright by Oldenburg Wissenshaftverlag,
- the licence allows the authors to put it on the Web).
- DOI and bibtex : see https://docs.abinit.org/theory/bibliography/#gonze2005
-
- Proc.   0 individual time (sec): cpu=        420.0  wall=        420.8
 
================================================================================
 
 Calculation completed.
.Delivered   0 WARNINGs and   3 COMMENTs to log file.
+Overall time at end (sec) : cpu=        420.0  wall=        420.8
