# YAML support is available, but is disabled for this test.
# Start legacy fldiff comparison report
2
< .Version 9.7.4 of ABINIT 
> .Version 9.9.0 of ABINIT 
3
< .(MPI version, prepared for a x86_64_linux_gnu9.3 computer) 
> .(MPI version, prepared for a x86_64_linux_gnu11.3 computer) 
17
< .Starting date : Wed  4 May 2022.
> .Starting date : Thu 17 Nov 2022.
1009
< +Overall time at end (sec) : cpu=          4.7  wall=          4.8
> +Overall time at end (sec) : cpu=          1.5  wall=          1.6
Summary t94.abo: no significant difference has been found.
