
.Version 10.5.8.2 of ABINIT, released Oct 2025.
.(MPI version, prepared for a x86_64_linux_nvhpc24.9-0 computer) 

.Copyright (C) 1998-2025 ABINIT group . 
 ABINIT comes with ABSOLUTELY NO WARRANTY.
 It is free software, and you are welcome to redistribute it
 under certain conditions (GNU General Public License,
 see ~abinit/COPYING or http://www.gnu.org/copyleft/gpl.txt).

 ABINIT is a project of the Universite Catholique de Louvain,
 Corning Inc. and other collaborators, see ~abinit/doc/developers/contributors.txt .
 Please read https://docs.abinit.org/theory/acknowledgments for suggested
 acknowledgments of the ABINIT effort.
 For more information, see https://www.abinit.org .

.Starting date : Mon 22 Dec 2025.
- ( at 07h41 )
  
- input  file    -> /home/buildbot/ABINIT3/eos_nvhpc_24.9_openmpi/trunk__codata2022/tests/TestBot_MPI1/gpu_omp_t48/t48.abi
- output file    -> t48.abo
- root for input  files -> t48i
- root for output files -> t48o
 
 DATASET    1 : space group F4 3 2 (#209); Bravais cF (face-center cubic)
================================================================================
 Values of the parameters that define the memory need for DATASET  1.
     intxc =       0    ionmov =       0      iscf =      17    lmnmax =      32
     lnmax =       8     mgfft =      18  mpssoang =       4    mqgrid =    3001
     natom =       1  nloc_mem =       2    nspden =       4   nspinor =       2
    nsppol =       1      nsym =      24    n1xccc =       1    ntypat =       1
    occopt =       3   xclevel =       1
-    mband =          42        mffmem =           1         mkmem =           2
       mpw =         204          nfft =        5832          nkpt =           2
 PAW method is used; the additional fine FFT grid is defined by:
   mgfftf=        30    nfftf =     27000
================================================================================
P This job should need less than                      25.618 Mbytes of memory.
  Rough estimation (10% accuracy) of disk space for files :
_ WF disk file :      0.263 Mbytes ; DEN or POT disk file :      0.208 Mbytes.
================================================================================
 
 DATASET    2 : space group F4 3 2 (#209); Bravais cF (face-center cubic)
================================================================================
 Values of the parameters that define the memory need for DATASET  2.
     intxc =       0    ionmov =       0      iscf =      17    lmnmax =      32
     lnmax =       8     mgfft =      18  mpssoang =       4    mqgrid =    3001
     natom =       1  nloc_mem =       2    nspden =       4   nspinor =       2
    nsppol =       1      nsym =      24    n1xccc =       1    ntypat =       1
    occopt =       3   xclevel =       1
-    mband =          42        mffmem =           1         mkmem =           2
       mpw =         204          nfft =        5832          nkpt =           2
 PAW method is used; the additional fine FFT grid is defined by:
   mgfftf=        30    nfftf =     27000
================================================================================
P This job should need less than                      25.618 Mbytes of memory.
  Rough estimation (10% accuracy) of disk space for files :
_ WF disk file :      0.263 Mbytes ; DEN or POT disk file :      0.208 Mbytes.
================================================================================
 
--------------------------------------------------------------------------------
------------- Echo of variables that govern the present computation ------------
--------------------------------------------------------------------------------
-
- outvars: echo of selected default values
-   iomode0 =  3 , fftalg0 =512 , wfoptalg0 = 10
-
- outvars: echo of global parameters not present in the input file
-  max_nthreads =    1
-
 -outvars: echo values of preprocessed input variables --------
            acell      7.4000000000E+00  7.4000000000E+00  7.4000000000E+00 Bohr
              amu      1.57250000E+02
        dmatpuopt           1
        dmftbandf1          0
        dmftbandf2         40
        dmftbandi1          0
        dmftbandi2          9
        dmft_iter1         10
        dmft_iter2          2
        dmft_mxsf1     6.0000000000E-01
        dmft_mxsf2     7.0000000000E-01
        dmft_nwli1          0
        dmft_nwli2     200000
        dmft_nwlo1          0
        dmft_nwlo2        100
        dmft_solv1          5
        dmft_solv2          2
             ecut      1.20000000E+01 Hartree
-          fftalg         112
        f4of2_sla      0.00000000E+00
        f6of2_sla      0.00000000E+00
           getwfk          -1
-      gpu_option           2
-gpu_thread_limit           1
-invovl_blksliced           0
              ixc           7
           jdtset        1    2
              kpt     -2.50000000E-01  5.00000000E-01  0.00000000E+00
                      -2.50000000E-01  0.00000000E+00  0.00000000E+00
           kptopt           4
         kptrlatt        2   -2    2     -2    2    2     -2   -2    2
          kptrlen      1.48000000E+01
            lpawu           3
P           mkmem           2
            natom           1
            nband          42
           ndtset           2
            ngfft          18      18      18
          ngfftdg          30      30      30
             nkpt           2
           nspden           4
          nspinor           2
            nstep1         30
            nstep2          1
             nsym          24
           ntypat           1
              occ      1.000000  1.000000  1.000000  1.000000  1.000000  1.000000
                       1.000000  1.000000  1.000000  1.000000  1.000000  1.000000
                       1.000000  1.000000  1.000000  1.000000  1.000000  1.000000
                       0.000000  0.000000  0.000000  0.000000  0.000000  0.000000
                       0.000000  0.000000  0.000000  0.000000  0.000000  0.000000
                       0.000000  0.000000  0.000000  0.000000  0.000000  0.000000
                       0.000000  0.000000  0.000000  0.000000  0.000000  0.000000
                       1.000000  1.000000  1.000000  1.000000  1.000000  1.000000
                       1.000000  1.000000  1.000000  1.000000  1.000000  1.000000
                       1.000000  1.000000  1.000000  1.000000  1.000000  1.000000
                       0.000000  0.000000  0.000000  0.000000  0.000000  0.000000
                       0.000000  0.000000  0.000000  0.000000  0.000000  0.000000
                       0.000000  0.000000  0.000000  0.000000  0.000000  0.000000
                       0.000000  0.000000  0.000000  0.000000  0.000000  0.000000
           occopt           3
        optforces1          2
        optforces2          0
        pawcpxocc           2
        pawecutdg      4.00000000E+01 Hartree
        pawprtvol           3
        pawspnorb           1
           prtvol           4
            rprim      0.0000000000E+00  5.0000000000E-01  5.0000000000E-01
                       5.0000000000E-01  0.0000000000E+00  5.0000000000E-01
                       5.0000000000E-01  5.0000000000E-01  0.0000000000E+00
           shiftk      5.00000000E-01  5.00000000E-01  5.00000000E-01
          spgroup         209
           symrel      1  0  0   0  1  0   0  0  1       0 -1  1   0 -1  0   1 -1  0
                      -1  0  0  -1  0  1  -1  1  0       0  1 -1   1  0 -1   0  0 -1
                       1  0  0   1 -1  0   1  0 -1       0  1 -1  -1  1  0   0  1  0
                      -1  0  0   0  0 -1   0 -1  0       0 -1  1   0  0  1  -1  0  1
                      -1  0  1  -1  1  0  -1  0  0       0 -1  0   1 -1  0   0 -1  1
                       1  0 -1   0  0 -1   0  1 -1       0  1  0   0  0  1   1  0  0
                      -1  0  1   0 -1  1   0  0  1       0  1  0   0  1 -1  -1  1  0
                       1  0 -1   1  0  0   1 -1  0       0 -1  0  -1  0  0   0  0 -1
                       0  0 -1   0  1 -1   1  0 -1       1 -1  0   0 -1  1   0 -1  0
                       0  0  1   1  0  0   0  1  0      -1  1  0  -1  0  0  -1  0  1
                       0  0 -1   0 -1  0  -1  0  0      -1  1  0   0  1  0   0  1 -1
                       0  0  1  -1  0  1   0 -1  1       1 -1  0   1  0 -1   1  0  0
           tolvrs      1.00000000E-08
           tsmear      7.00000000E-03 Hartree
            typat      1
            upawu1     0.00000000E+00 Hartree
            upawu2     2.20000000E-01 Hartree
          usedmft1          0
          usedmft2          1
          usepawu1          1
          usepawu2         10
-          useylm           1
              wtk        0.75000    0.25000
            znucl       64.00000
 
================================================================================
 
 chkinp: Checking input parameters for consistency, jdtset=   1.
 
 chkinp: Checking input parameters for consistency, jdtset=   2.
 
================================================================================
== DATASET  1 ==================================================================
-   mpi_nproc: 1, omp_nthreads: 1 (-1 if OMP is not activated)
 

--- !DatasetInfo
iteration_state: {dtset: 1, }
dimensions: {natom: 1, nkpt: 2, mband: 42, nsppol: 1, nspinor: 2, nspden: 4, mpw: 204, }
cutoff_energies: {ecut:  12.0, pawecutdg:  40.0, }
electrons: {nelect:   1.80000000E+01, charge:   0.00000000E+00, occopt:   3.00000000E+00, tsmear:   7.00000000E-03, }
meta: {optdriver: 0, ionmov: 0, optcell: 0, iscf: 17, paral_kgb: 0, }
...

 Exchange-correlation functional for the present dataset will be:
  LDA: Perdew-Wang 92 LSD fit to Ceperley-Alder data - ixc=7
 Citation for XC functional:
  J.P.Perdew and Y.Wang, PRB 45, 13244 (1992)
 
 Real(R)+Recip(G) space primitive vectors, cartesian coordinates (Bohr,Bohr^-1):
 R(1)=  0.0000000  3.7000000  3.7000000  G(1)= -0.1351351  0.1351351  0.1351351
 R(2)=  3.7000000  0.0000000  3.7000000  G(2)=  0.1351351 -0.1351351  0.1351351
 R(3)=  3.7000000  3.7000000  0.0000000  G(3)=  0.1351351  0.1351351 -0.1351351
 Unit cell volume ucvol=  1.0130600E+02 bohr^3
 Angles (23,13,12)=  6.00000000E+01  6.00000000E+01  6.00000000E+01 degrees
 
 Coarse grid specifications (used for wave-functions):
 
 getcut: wavevector=  0.0000  0.0000  0.0000  ngfft=  18  18  18
         ecut(hartree)=     12.000   => boxcut(ratio)=   2.21277
 
 getcut : COMMENT -
  Note that boxcut > 2.2 ; recall that boxcut=Gcut(box)/Gcut(sphere) = 2
  is sufficient for exact treatment of convolution.
  Such a large boxcut is a waste : you could raise ecut
  e.g. ecut=   14.689057 Hartrees makes boxcut=2
 
 
 Fine grid specifications (used for densities):
 
 getcut: wavevector=  0.0000  0.0000  0.0000  ngfft=  30  30  30
         ecut(hartree)=     40.000   => boxcut(ratio)=   2.01600
 
--- Pseudopotential description ------------------------------------------------
- pspini: atom type   1  psp file is /home/buildbot/ABINIT3/eos_nvhpc_24.9_openmpi/trunk__codata2022/tests/Pspdir/64gd.paw
- pspatm: opening atomic psp file    /home/buildbot/ABINIT3/eos_nvhpc_24.9_openmpi/trunk__codata2022/tests/Pspdir/64gd.paw
- Paw atomic data for element Gd - Generated by AtomPAW (N. Holzwarth) + AtomPAW2Abinit v3.0.5
- 64.00000  18.00000  20061212                znucl, zion, pspdat
    7    7    3    0       508   0.00000      pspcod,pspxc,lmax,lloc,mmax,r2well
 Pseudopotential format is: paw3
 basis_size (lnmax)=  8 (lmn_size= 32), orbitals=   0   0   1   1   2   2   3   3
 Spheres core radius: rc_sph= 2.53945782
 3 radial meshes are used:
  - mesh 1: r(i)=AA*[exp(BB*(i-1))-1], size= 508 , AA= 0.28076E-03 BB= 0.17969E-01
  - mesh 2: r(i)=AA*[exp(BB*(i-1))-1], size= 526 , AA= 0.28076E-03 BB= 0.17969E-01
  - mesh 3: r(i)=AA*[exp(BB*(i-1))-1], size= 584 , AA= 0.28076E-03 BB= 0.17969E-01
 Shapefunction is SIN type: shapef(r)=[sin(pi*r/rshp)/(pi*r/rshp)]**2
 Radius for shape functions = sphere core radius
 Radial grid used for partial waves is grid 1
 Radial grid used for projectors is grid  1
 Radial grid used for (t)core density is grid 2
 Radial grid used for Vloc is grid 3
 Compensation charge density is taken into account in XC energy/potential
 pspatm: atomic psp has been read  and splines computed
 
   1.01347208E+03                                ecore*ucvol(ha*bohr**3)
--------------------------------------------------------------------------------
 
P newkpt: treating     42 bands with npw=     204 for ikpt=   1 by node    0
P newkpt: treating     42 bands with npw=     199 for ikpt=   2 by node    0
_setup2: Arith. and geom. avg. npw (full set) are     202.750     202.738
 
 
 ******************************************
 DFT+U Method used: FLL
 Magnetic DC : option_interaction = 3
 ******************************************
 
================================================================================

--- !BeginCycle
iteration_state: {dtset: 1, }
solver: {iscf: 17, nstep: 30, nline: 4, wfoptalg: 10, }
tolerances: {tolvrs: 1.00E-08, }
...
 
     iter   Etot(hartree)      deltaE(h)  residm     nres2   difmagsph maxmagsph
 ETOT  1  -115.27416606548    -1.153E+02 5.038E+00 3.212E+02 0.000E+00 0.000E+00
 ETOT  2  -119.48153799829    -4.207E+00 2.351E+00 2.382E+02 0.000E+00 0.000E+00
 ETOT  3  -114.46650402990     5.015E+00 7.857E+01 1.489E+02 0.000E+00 0.000E+00
 ETOT  4  -113.39512869252     1.071E+00 6.679E-01 8.331E+01 0.000E+00 0.000E+00
 ETOT  5  -113.85469878723    -4.596E-01 1.841E-01 1.029E+02 0.000E+00 0.000E+00
 ETOT  6  -112.70291625982     1.152E+00 2.699E+00 1.137E+01 0.000E+00 0.000E+00
 ETOT  7  -112.77953672723    -7.662E-02 2.795E-02 2.521E+01 0.000E+00 0.000E+00
 ETOT  8  -112.67468230472     1.049E-01 2.920E-01 3.138E+00 0.000E+00 0.000E+00
 ETOT  9  -112.69998257314    -2.530E-02 6.528E-02 8.448E+00 0.000E+00 0.000E+00
 ETOT 10  -112.77094241319    -7.096E-02 5.975E-02 1.969E+01 0.000E+00 0.000E+00
 ETOT 11  -112.75211024612     1.883E-02 1.654E-02 1.522E+01 0.000E+00 0.000E+00
 ETOT 12  -112.71779067413     3.432E-02 1.188E-02 7.918E+00 0.000E+00 0.000E+00
 ETOT 13  -112.65555363112     6.224E-02 2.881E-01 4.203E-01 0.000E+00 0.000E+00
 ETOT 14  -112.66093290656    -5.379E-03 4.213E-02 9.362E-01 0.000E+00 0.000E+00
 ETOT 15  -112.66058730664     3.456E-04 1.357E-03 7.428E-01 0.000E+00 0.000E+00
 ETOT 16  -112.65466271865     5.925E-03 1.969E-02 5.167E-03 0.000E+00 0.000E+00
 ETOT 17  -112.65546119961    -7.985E-04 1.911E-03 1.448E-01 0.000E+00 0.000E+00
 ETOT 18  -112.65570302959    -2.418E-04 3.462E-04 1.469E-01 0.000E+00 0.000E+00
 ETOT 19  -112.65488335359     8.197E-04 8.651E-04 3.195E-02 0.000E+00 0.000E+00
 ETOT 20  -112.65464057737     2.428E-04 4.251E-04 1.580E-03 0.000E+00 0.000E+00
 ETOT 21  -112.65462656579     1.401E-05 4.332E-05 2.874E-05 0.000E+00 0.000E+00
 ETOT 22  -112.65463171746    -5.152E-06 3.246E-06 9.918E-06 0.000E+00 0.000E+00
 ETOT 23  -112.65463157257     1.449E-07 4.644E-07 2.676E-05 0.000E+00 0.000E+00
 ETOT 24  -112.65463143420     1.384E-07 2.479E-07 8.766E-07 0.000E+00 0.000E+00
 ETOT 25  -112.65463144539    -1.119E-08 3.216E-08 6.438E-07 0.000E+00 0.000E+00
 ETOT 26  -112.65463142099     2.440E-08 3.566E-08 1.871E-07 0.000E+00 0.000E+00
 ETOT 27  -112.65463142183    -8.321E-10 3.653E-09 5.977E-08 0.000E+00 0.000E+00
 ETOT 28  -112.65463142486    -3.029E-09 1.032E-09 1.607E-09 0.000E+00 0.000E+00
 
 At SCF step   28       nres2   =  1.61E-09 < tolvrs=  1.00E-08 =>converged.
 
 Cartesian components of stress tensor (hartree/bohr^3)
  sigma(1 1)= -1.46432434E-03  sigma(3 2)=  0.00000000E+00
  sigma(2 2)= -1.46432434E-03  sigma(3 1)=  0.00000000E+00
  sigma(3 3)= -1.46432434E-03  sigma(2 1)=  0.00000000E+00
 

--- !ResultsGS
iteration_state: {dtset: 1, }
comment   : Summary of ground state results
lattice_vectors:
- [  0.0000000,   3.7000000,   3.7000000, ]
- [  3.7000000,   0.0000000,   3.7000000, ]
- [  3.7000000,   3.7000000,   0.0000000, ]
lattice_lengths: [   5.23259,    5.23259,    5.23259, ]
lattice_angles: [ 60.000,  60.000,  60.000, ] # degrees, (23, 13, 12)
lattice_volume:   1.0130600E+02
convergence: {deltae: -3.029E-09, res2:  1.607E-09, residm:  1.032E-09, diffor: null, }
etotal    :  -1.12654631E+02
entropy   :   0.00000000E+00
fermie    :   5.71983952E-01
cartesian_stress_tensor: # hartree/bohr^3
- [ -1.46432434E-03,   0.00000000E+00,   0.00000000E+00, ]
- [  0.00000000E+00,  -1.46432434E-03,   0.00000000E+00, ]
- [  0.00000000E+00,   0.00000000E+00,  -1.46432434E-03, ]
pressure_GPa:   4.3082E+01
xred      :
- [  0.0000E+00,   0.0000E+00,   0.0000E+00, Gd]
cartesian_forces: # hartree/bohr
- [  0.00000000E+00,   0.00000000E+00,   0.00000000E+00, ]
force_length_stats: {min:   0.00000000E+00, max:   0.00000000E+00, mean:   0.00000000E+00, }
...

 Integrated electronic and magnetization densities in atomic spheres:
 ------------------------------------------------------------------------------------------------------------
 Radius=ratsph(iatom), smearing ratsm=  0.0000. mag(i)=approximate local magnetic moment.
    Atom    Radius     Total density      |mag|      mag(x)      mag(y)      mag(z)    mag(theta)  mag(phi)
    1 Gd   2.53946       16.644609      0.000000    0.000000   -0.000000    0.000000    0.000000    0.000000
 ------------------------------------------------------------------------------------------------------------
 Total magnetization (spheres)
 (cart.coord.)                                      0.000000   -0.000000    0.000000
 (sph.coord.)                           0.000000                                        0.000000    0.000000
 Total magnetization (exact)
 (cart.coord.)                                     -0.000000    0.000000    0.000000
 (sph.coord.)                           0.000000                                        0.000000    0.000000
 
 PAW TEST:
 ==== Compensation charge inside spheres ============
 The following values must be close to each other ...
 Compensation charge over spherical meshes =      7.046411145671874
 Compensation charge over fine fft grid    =      7.046395322391912
 
 ==== Results concerning PAW augmentation regions ====
 
 Total pseudopotential strength Dij (hartree):
 Atom #  1 - Component up-up
   === REAL PART:
   1.04942  -0.30109   0.00000  -0.00000   0.00000   0.00000   0.00000   0.00000   0.00000   0.00000   0.00000   0.00000 ...
  -0.30109   0.10631   0.00000   0.00000   0.00000   0.00000  -0.00000   0.00000   0.00000   0.00000   0.00000   0.00000 ...
   0.00000   0.00000   0.19825   0.00000   0.00000  -0.21439   0.00000   0.00000   0.00000  -0.00000   0.00000   0.00000 ...
  -0.00000   0.00000   0.00000   0.19825   0.00000   0.00000  -0.21439   0.00000   0.00000   0.00000  -0.00000   0.00000 ...
   0.00000   0.00000   0.00000   0.00000   0.19825   0.00000   0.00000  -0.21439   0.00000   0.00000   0.00000  -0.00000 ...
   0.00000   0.00000  -0.21439   0.00000   0.00000   0.55271   0.00000   0.00000   0.00000   0.00000   0.00000   0.00000 ...
   0.00000  -0.00000   0.00000  -0.21439   0.00000   0.00000   0.55271   0.00000   0.00000   0.00000   0.00000   0.00000 ...
   0.00000   0.00000   0.00000   0.00000  -0.21439   0.00000   0.00000   0.55271   0.00000   0.00000   0.00000   0.00000 ...
   0.00000   0.00000   0.00000   0.00000   0.00000   0.00000   0.00000   0.00000   0.08872   0.00000   0.00000   0.00000 ...
   0.00000   0.00000  -0.00000   0.00000   0.00000   0.00000   0.00000   0.00000   0.00000   0.08872   0.00000   0.00000 ...
   0.00000   0.00000   0.00000  -0.00000   0.00000   0.00000   0.00000   0.00000   0.00000   0.00000   0.08880   0.00000 ...
   0.00000   0.00000   0.00000   0.00000  -0.00000   0.00000   0.00000   0.00000   0.00000   0.00000   0.00000   0.08872 ...
   ...  only 12  components have been written...
   === IMAGINARY PART:
  -0.00000  -0.00000  -0.00000  -0.00000  -0.00000  -0.00000  -0.00000  -0.00000  -0.00000  -0.00000  -0.00000  -0.00000 ...
   0.00000  -0.00000  -0.00000  -0.00000  -0.00000  -0.00000  -0.00000  -0.00000  -0.00000  -0.00000  -0.00000  -0.00000 ...
   0.00000   0.00000  -0.00000  -0.00000  -0.04907  -0.00000  -0.00000   0.04853  -0.00000  -0.00000  -0.00000  -0.00000 ...
   0.00000   0.00000   0.00000  -0.00000  -0.00000  -0.00000  -0.00000  -0.00000  -0.00000  -0.00000  -0.00000  -0.00000 ...
   0.00000   0.00000   0.04907   0.00000  -0.00000  -0.04853  -0.00000  -0.00000  -0.00000  -0.00000  -0.00000  -0.00000 ...
   0.00000   0.00000   0.00000   0.00000   0.04853  -0.00000  -0.00000  -0.04802  -0.00000  -0.00000  -0.00000  -0.00000 ...
   0.00000   0.00000   0.00000   0.00000   0.00000   0.00000  -0.00000  -0.00000  -0.00000  -0.00000  -0.00000  -0.00000 ...
   0.00000   0.00000  -0.04853   0.00000   0.00000   0.04802   0.00000  -0.00000  -0.00000  -0.00000  -0.00000  -0.00000 ...
   0.00000   0.00000   0.00000   0.00000   0.00000   0.00000   0.00000   0.00000  -0.00000  -0.00000  -0.00000  -0.00000 ...
   0.00000   0.00000   0.00000   0.00000   0.00000   0.00000   0.00000   0.00000   0.00000  -0.00000  -0.00000  -0.00197 ...
   0.00000   0.00000   0.00000   0.00000   0.00000   0.00000   0.00000   0.00000   0.00000   0.00000  -0.00000  -0.00000 ...
   0.00000   0.00000   0.00000   0.00000   0.00000   0.00000   0.00000   0.00000   0.00000   0.00197   0.00000  -0.00000 ...
   ...  only 12  components have been written...
 Atom #  1 - Component dwn-dwn
   === REAL PART:
   1.04942  -0.30109   0.00000   0.00000   0.00000   0.00000  -0.00000   0.00000   0.00000   0.00000   0.00000   0.00000 ...
  -0.30109   0.10631   0.00000  -0.00000   0.00000   0.00000   0.00000   0.00000   0.00000   0.00000   0.00000   0.00000 ...
   0.00000   0.00000   0.19825   0.00000   0.00000  -0.21439   0.00000   0.00000   0.00000   0.00000   0.00000   0.00000 ...
   0.00000  -0.00000   0.00000   0.19825   0.00000   0.00000  -0.21439   0.00000   0.00000   0.00000   0.00000   0.00000 ...
   0.00000   0.00000   0.00000   0.00000   0.19825   0.00000   0.00000  -0.21439   0.00000   0.00000   0.00000   0.00000 ...
   0.00000   0.00000  -0.21439   0.00000   0.00000   0.55271   0.00000   0.00000   0.00000  -0.00000   0.00000   0.00000 ...
  -0.00000   0.00000   0.00000  -0.21439   0.00000   0.00000   0.55271   0.00000   0.00000   0.00000  -0.00000   0.00000 ...
   0.00000   0.00000   0.00000   0.00000  -0.21439   0.00000   0.00000   0.55271   0.00000   0.00000   0.00000  -0.00000 ...
   0.00000   0.00000   0.00000   0.00000   0.00000   0.00000   0.00000   0.00000   0.08872   0.00000   0.00000   0.00000 ...
   0.00000   0.00000   0.00000   0.00000   0.00000  -0.00000   0.00000   0.00000   0.00000   0.08872   0.00000   0.00000 ...
   0.00000   0.00000   0.00000   0.00000   0.00000   0.00000  -0.00000   0.00000   0.00000   0.00000   0.08880   0.00000 ...
   0.00000   0.00000   0.00000   0.00000   0.00000   0.00000   0.00000  -0.00000   0.00000   0.00000   0.00000   0.08872 ...
   ...  only 12  components have been written...
   === IMAGINARY PART:
  -0.00000  -0.00000  -0.00000  -0.00000  -0.00000  -0.00000  -0.00000  -0.00000  -0.00000  -0.00000  -0.00000  -0.00000 ...
   0.00000  -0.00000  -0.00000  -0.00000  -0.00000  -0.00000  -0.00000  -0.00000  -0.00000  -0.00000  -0.00000  -0.00000 ...
   0.00000   0.00000  -0.00000  -0.00000   0.04907  -0.00000  -0.00000  -0.04853  -0.00000  -0.00000  -0.00000  -0.00000 ...
   0.00000   0.00000   0.00000  -0.00000  -0.00000  -0.00000  -0.00000  -0.00000  -0.00000  -0.00000  -0.00000  -0.00000 ...
   0.00000   0.00000  -0.04907   0.00000  -0.00000   0.04853  -0.00000  -0.00000  -0.00000  -0.00000  -0.00000  -0.00000 ...
   0.00000   0.00000   0.00000   0.00000  -0.04853  -0.00000  -0.00000   0.04802  -0.00000  -0.00000  -0.00000  -0.00000 ...
   0.00000   0.00000   0.00000   0.00000   0.00000   0.00000  -0.00000  -0.00000  -0.00000  -0.00000  -0.00000  -0.00000 ...
   0.00000   0.00000   0.04853   0.00000   0.00000  -0.04802   0.00000  -0.00000  -0.00000  -0.00000  -0.00000  -0.00000 ...
   0.00000   0.00000   0.00000   0.00000   0.00000   0.00000   0.00000   0.00000  -0.00000  -0.00000  -0.00000  -0.00000 ...
   0.00000   0.00000   0.00000   0.00000   0.00000   0.00000   0.00000   0.00000   0.00000  -0.00000  -0.00000   0.00197 ...
   0.00000   0.00000   0.00000   0.00000   0.00000   0.00000   0.00000   0.00000   0.00000   0.00000  -0.00000  -0.00000 ...
   0.00000   0.00000   0.00000   0.00000   0.00000   0.00000   0.00000   0.00000   0.00000  -0.00197   0.00000  -0.00000 ...
   ...  only 12  components have been written...
 Atom #  1 - Component up-dwn
   === REAL PART:
   0.00000   0.00000   0.00000   0.00000  -0.00000   0.00000   0.00000   0.00000   0.00000   0.00000   0.00000   0.00000 ...
   0.00000   0.00000   0.00000   0.00000   0.00000   0.00000   0.00000  -0.00000   0.00000   0.00000   0.00000   0.00000 ...
   0.00000   0.00000   0.00000   0.00000   0.00000   0.00000   0.00000   0.00000  -0.00000   0.00000   0.00000   0.00000 ...
   0.00000   0.00000   0.00000   0.00000   0.04907   0.00000   0.00000  -0.04853   0.00000   0.00000   0.00000  -0.00000 ...
  -0.00000   0.00000   0.00000  -0.04907   0.00000   0.00000   0.04853   0.00000   0.00000   0.00000   0.00000   0.00000 ...
   0.00000   0.00000   0.00000   0.00000   0.00000   0.00000   0.00000   0.00000   0.00000   0.00000   0.00000   0.00000 ...
   0.00000   0.00000   0.00000   0.00000  -0.04853   0.00000   0.00000   0.04802   0.00000   0.00000   0.00000   0.00000 ...
   0.00000  -0.00000   0.00000   0.04853   0.00000   0.00000  -0.04802   0.00000   0.00000   0.00000  -0.00000   0.00000 ...
   0.00000   0.00000  -0.00000   0.00000   0.00000   0.00000   0.00000   0.00000   0.00000  -0.00197   0.00000   0.00000 ...
   0.00000   0.00000   0.00000   0.00000   0.00000   0.00000   0.00000   0.00000   0.00197   0.00000   0.00000   0.00000 ...
   0.00000   0.00000   0.00000   0.00000   0.00000   0.00000   0.00000  -0.00000   0.00000   0.00000   0.00000   0.00342 ...
   0.00000   0.00000   0.00000  -0.00000   0.00000   0.00000   0.00000   0.00000   0.00000   0.00000  -0.00342   0.00000 ...
   ...  only 12  components have been written...
   === IMAGINARY PART:
  -0.00000  -0.00000   0.00000  -0.00000  -0.00000  -0.00000  -0.00000  -0.00000  -0.00000  -0.00000  -0.00000  -0.00000 ...
   0.00000  -0.00000  -0.00000  -0.00000  -0.00000   0.00000  -0.00000  -0.00000  -0.00000  -0.00000  -0.00000  -0.00000 ...
   0.00000  -0.00000  -0.00000   0.04907  -0.00000  -0.00000  -0.04853  -0.00000  -0.00000  -0.00000  -0.00000  -0.00000 ...
   0.00000   0.00000  -0.04907  -0.00000  -0.00000   0.04853  -0.00000  -0.00000  -0.00000   0.00000  -0.00000  -0.00000 ...
   0.00000   0.00000   0.00000   0.00000  -0.00000  -0.00000  -0.00000  -0.00000   0.00000  -0.00000  -0.00000  -0.00000 ...
  -0.00000   0.00000   0.00000  -0.04853   0.00000  -0.00000   0.04802  -0.00000  -0.00000  -0.00000   0.00000  -0.00000 ...
   0.00000   0.00000   0.04853   0.00000   0.00000  -0.04802  -0.00000  -0.00000  -0.00000  -0.00000  -0.00000  -0.00000 ...
   0.00000   0.00000   0.00000   0.00000   0.00000   0.00000   0.00000  -0.00000  -0.00000  -0.00000  -0.00000  -0.00000 ...
   0.00000   0.00000   0.00000   0.00000   0.00000   0.00000   0.00000  -0.00000  -0.00000  -0.00000  -0.00000   0.00197 ...
   0.00000   0.00000   0.00000   0.00000   0.00000   0.00000  -0.00000   0.00000   0.00000  -0.00000   0.00342  -0.00000 ...
   0.00000   0.00000  -0.00000   0.00000   0.00000   0.00000   0.00000   0.00000   0.00000  -0.00342  -0.00000  -0.00000 ...
   0.00000   0.00000   0.00000   0.00000   0.00000   0.00000   0.00000   0.00000  -0.00197   0.00000   0.00000  -0.00000 ...
   ...  only 12  components have been written...
 Atom #  1 - Component dwn-up
   === REAL PART:
   0.00000   0.00000   0.00000   0.00000  -0.00000   0.00000   0.00000   0.00000   0.00000   0.00000   0.00000   0.00000 ...
   0.00000   0.00000   0.00000   0.00000   0.00000   0.00000   0.00000  -0.00000   0.00000   0.00000   0.00000   0.00000 ...
   0.00000   0.00000   0.00000   0.00000   0.00000   0.00000   0.00000   0.00000  -0.00000   0.00000   0.00000   0.00000 ...
   0.00000   0.00000   0.00000   0.00000  -0.04907   0.00000   0.00000   0.04853   0.00000   0.00000   0.00000  -0.00000 ...
  -0.00000   0.00000   0.00000   0.04907   0.00000   0.00000  -0.04853   0.00000   0.00000   0.00000   0.00000   0.00000 ...
   0.00000   0.00000   0.00000   0.00000   0.00000   0.00000   0.00000   0.00000   0.00000   0.00000   0.00000   0.00000 ...
   0.00000   0.00000   0.00000   0.00000   0.04853   0.00000   0.00000  -0.04802   0.00000   0.00000   0.00000   0.00000 ...
   0.00000  -0.00000   0.00000  -0.04853   0.00000   0.00000   0.04802   0.00000   0.00000   0.00000  -0.00000   0.00000 ...
   0.00000   0.00000  -0.00000   0.00000   0.00000   0.00000   0.00000   0.00000   0.00000   0.00197   0.00000   0.00000 ...
   0.00000   0.00000   0.00000   0.00000   0.00000   0.00000   0.00000   0.00000  -0.00197   0.00000   0.00000   0.00000 ...
   0.00000   0.00000   0.00000   0.00000   0.00000   0.00000   0.00000  -0.00000   0.00000   0.00000   0.00000  -0.00342 ...
   0.00000   0.00000   0.00000  -0.00000   0.00000   0.00000   0.00000   0.00000   0.00000   0.00000   0.00342   0.00000 ...
   ...  only 12  components have been written...
   === IMAGINARY PART:
  -0.00000  -0.00000  -0.00000  -0.00000  -0.00000   0.00000  -0.00000  -0.00000  -0.00000  -0.00000  -0.00000  -0.00000 ...
   0.00000  -0.00000   0.00000  -0.00000  -0.00000  -0.00000  -0.00000  -0.00000  -0.00000  -0.00000  -0.00000  -0.00000 ...
  -0.00000   0.00000  -0.00000   0.04907  -0.00000  -0.00000  -0.04853  -0.00000  -0.00000  -0.00000   0.00000  -0.00000 ...
   0.00000   0.00000  -0.04907  -0.00000  -0.00000   0.04853  -0.00000  -0.00000  -0.00000  -0.00000  -0.00000  -0.00000 ...
   0.00000   0.00000   0.00000   0.00000  -0.00000  -0.00000  -0.00000  -0.00000  -0.00000  -0.00000  -0.00000  -0.00000 ...
   0.00000  -0.00000   0.00000  -0.04853   0.00000  -0.00000   0.04802  -0.00000  -0.00000  -0.00000  -0.00000  -0.00000 ...
   0.00000   0.00000   0.04853   0.00000   0.00000  -0.04802  -0.00000  -0.00000  -0.00000   0.00000  -0.00000  -0.00000 ...
   0.00000   0.00000   0.00000   0.00000   0.00000   0.00000   0.00000  -0.00000   0.00000  -0.00000  -0.00000  -0.00000 ...
   0.00000   0.00000   0.00000   0.00000  -0.00000   0.00000   0.00000   0.00000  -0.00000  -0.00000  -0.00000   0.00197 ...
   0.00000   0.00000   0.00000  -0.00000   0.00000   0.00000   0.00000   0.00000   0.00000  -0.00000   0.00342  -0.00000 ...
   0.00000   0.00000   0.00000   0.00000   0.00000  -0.00000   0.00000   0.00000   0.00000  -0.00342  -0.00000  -0.00000 ...
   0.00000   0.00000   0.00000   0.00000   0.00000   0.00000   0.00000   0.00000  -0.00197   0.00000   0.00000  -0.00000 ...
   ...  only 12  components have been written...
 
 
 Augmentation waves occupancies Rhoij:
 Atom #  1 - Component dens (n)
   === REAL PART:
   2.02089   0.08744   0.00000   0.00000   0.00000   0.00000  -0.00000   0.00000   0.00000   0.00000   0.00000   0.00000 ...
   0.08744   1.28671   0.00000   0.00000   0.00000   0.00000  -0.00000   0.00000   0.00000   0.00000   0.00000   0.00000 ...
   0.00000   0.00000   1.96513   0.00000   0.00000   0.05071   0.00000   0.00000   0.00000   0.00000   0.00000   0.00000 ...
   0.00000   0.00000   0.00000   1.96513   0.00000   0.00000   0.05071   0.00000   0.00000   0.00000  -0.00000   0.00000 ...
   0.00000   0.00000   0.00000   0.00000   1.96513   0.00000   0.00000   0.05071   0.00000   0.00000   0.00000   0.00000 ...
   0.00000   0.00000   0.05071   0.00000   0.00000   0.02074   0.00000   0.00000   0.00000   0.00000   0.00000   0.00000 ...
  -0.00000  -0.00000   0.00000   0.05071   0.00000   0.00000   0.02074  -0.00000   0.00000  -0.00000  -0.00000   0.00000 ...
   0.00000   0.00000   0.00000   0.00000   0.05071   0.00000  -0.00000   0.02074   0.00000   0.00000   0.00000   0.00000 ...
   0.00000   0.00000   0.00000   0.00000   0.00000   0.00000   0.00000   0.00000   0.65698   0.00000   0.00000   0.00000 ...
   0.00000   0.00000   0.00000   0.00000   0.00000   0.00000  -0.00000   0.00000   0.00000   0.65698   0.00000   0.00000 ...
   0.00000   0.00000   0.00000  -0.00000   0.00000   0.00000  -0.00000   0.00000   0.00000   0.00000   0.59820   0.00000 ...
   0.00000   0.00000   0.00000   0.00000   0.00000   0.00000   0.00000   0.00000   0.00000   0.00000   0.00000   0.65698 ...
   ...  only 12  components have been written...
   === IMAGINARY PART:
   0.00000   0.00000  -0.00000  -0.00000  -0.00000  -0.00000   0.00000  -0.00000  -0.00000  -0.00000  -0.00000  -0.00000 ...
  -0.00000   0.00000  -0.00000   0.00000  -0.00000  -0.00000   0.00000  -0.00000  -0.00000  -0.00000  -0.00000  -0.00000 ...
   0.00000   0.00000  -0.00000  -0.00000   0.00000  -0.00000  -0.00000   0.00000  -0.00000   0.00000  -0.00000  -0.00000 ...
   0.00000  -0.00000   0.00000  -0.00000  -0.00000  -0.00000  -0.00000  -0.00000  -0.00000   0.00000  -0.00000  -0.00000 ...
   0.00000   0.00000  -0.00000   0.00000  -0.00000  -0.00000  -0.00000  -0.00000  -0.00000  -0.00000  -0.00000   0.00000 ...
   0.00000   0.00000   0.00000   0.00000   0.00000   0.00000  -0.00000  -0.00000  -0.00000   0.00000  -0.00000  -0.00000 ...
  -0.00000  -0.00000   0.00000   0.00000   0.00000   0.00000   0.00000  -0.00000  -0.00000  -0.00000  -0.00000  -0.00000 ...
   0.00000   0.00000  -0.00000   0.00000   0.00000   0.00000   0.00000   0.00000  -0.00000  -0.00000  -0.00000   0.00000 ...
   0.00000   0.00000   0.00000   0.00000   0.00000   0.00000   0.00000   0.00000  -0.00000  -0.00000  -0.00000  -0.00000 ...
   0.00000   0.00000  -0.00000  -0.00000   0.00000  -0.00000   0.00000   0.00000   0.00000  -0.00000  -0.00000   0.00000 ...
   0.00000   0.00000   0.00000   0.00000   0.00000   0.00000   0.00000   0.00000   0.00000   0.00000  -0.00000  -0.00000 ...
   0.00000   0.00000   0.00000   0.00000  -0.00000   0.00000   0.00000  -0.00000   0.00000  -0.00000   0.00000  -0.00000 ...
   ...  only 12  components have been written...
 Atom #  1 - Component magn (x)
   === REAL PART:
   0.00000  -0.00000   0.00000   0.00000   0.00000   0.00000  -0.00000   0.00000   0.00000   0.00000   0.00000   0.00000 ...
  -0.00000  -0.00000  -0.00000   0.00000   0.00000  -0.00000   0.00000  -0.00000   0.00000   0.00000   0.00000   0.00000 ...
   0.00000  -0.00000  -0.00000  -0.00000   0.00000  -0.00000  -0.00000  -0.00000   0.00000  -0.00000  -0.00000   0.00000 ...
   0.00000   0.00000  -0.00000  -0.00000   0.00000   0.00000   0.00000   0.00000   0.00000   0.00000   0.00000   0.00000 ...
   0.00000   0.00000   0.00000   0.00000   0.00000  -0.00000   0.00000  -0.00000  -0.00000   0.00000  -0.00000   0.00000 ...
   0.00000  -0.00000  -0.00000   0.00000  -0.00000   0.00000   0.00000  -0.00000   0.00000  -0.00000  -0.00000   0.00000 ...
  -0.00000   0.00000  -0.00000   0.00000   0.00000   0.00000  -0.00000  -0.00000   0.00000  -0.00000   0.00000   0.00000 ...
   0.00000  -0.00000  -0.00000   0.00000  -0.00000  -0.00000  -0.00000  -0.00000  -0.00000   0.00000   0.00000  -0.00000 ...
   0.00000   0.00000   0.00000   0.00000  -0.00000   0.00000   0.00000  -0.00000  -0.00000  -0.00000   0.00000  -0.00000 ...
   0.00000   0.00000  -0.00000   0.00000   0.00000  -0.00000  -0.00000   0.00000  -0.00000   0.00000   0.00000   0.00000 ...
   0.00000   0.00000  -0.00000   0.00000  -0.00000  -0.00000   0.00000   0.00000   0.00000   0.00000   0.00000  -0.00000 ...
   0.00000   0.00000   0.00000   0.00000   0.00000   0.00000   0.00000  -0.00000  -0.00000   0.00000  -0.00000  -0.00000 ...
   ...  only 12  components have been written...
   === IMAGINARY PART:
  -0.00000  -0.00000  -0.00000  -0.00000  -0.00000   0.00000   0.00000   0.00000  -0.00000  -0.00000  -0.00000  -0.00000 ...
   0.00000  -0.00000  -0.00000  -0.00000  -0.00000   0.00000  -0.00000  -0.00000  -0.00000  -0.00000  -0.00000  -0.00000 ...
   0.00000   0.00000  -0.00000  -0.01433   0.00000  -0.00000  -0.07652   0.00000   0.00000   0.00000  -0.00000  -0.00000 ...
   0.00000   0.00000   0.01433  -0.00000  -0.00000   0.07652  -0.00000  -0.00000  -0.00000  -0.00000   0.00000   0.00000 ...
   0.00000   0.00000  -0.00000   0.00000  -0.00000  -0.00000   0.00000   0.00000  -0.00000  -0.00000  -0.00000   0.00000 ...
  -0.00000  -0.00000   0.00000  -0.07652   0.00000  -0.00000   0.00147  -0.00000  -0.00000  -0.00000   0.00000  -0.00000 ...
  -0.00000   0.00000   0.07652   0.00000  -0.00000  -0.00147  -0.00000   0.00000  -0.00000  -0.00000   0.00000  -0.00000 ...
  -0.00000   0.00000  -0.00000   0.00000  -0.00000   0.00000  -0.00000  -0.00000  -0.00000  -0.00000   0.00000  -0.00000 ...
   0.00000   0.00000  -0.00000   0.00000   0.00000   0.00000   0.00000   0.00000  -0.00000  -0.00000  -0.00000   0.00725 ...
   0.00000   0.00000  -0.00000   0.00000   0.00000   0.00000   0.00000   0.00000   0.00000  -0.00000   0.01342  -0.00000 ...
   0.00000   0.00000   0.00000  -0.00000   0.00000  -0.00000  -0.00000  -0.00000   0.00000  -0.01342  -0.00000   0.00000 ...
   0.00000   0.00000   0.00000  -0.00000  -0.00000   0.00000   0.00000   0.00000  -0.00725   0.00000  -0.00000  -0.00000 ...
   ...  only 12  components have been written...
 Atom #  1 - Component magn (y)
   === REAL PART:
   0.00000  -0.00000   0.00000  -0.00000  -0.00000   0.00000  -0.00000  -0.00000   0.00000   0.00000   0.00000   0.00000 ...
  -0.00000  -0.00000   0.00000   0.00000   0.00000  -0.00000  -0.00000   0.00000   0.00000   0.00000   0.00000   0.00000 ...
   0.00000   0.00000   0.00000   0.00000   0.00000  -0.00000  -0.00000  -0.00000   0.00000  -0.00000  -0.00000   0.00000 ...
  -0.00000   0.00000   0.00000  -0.00000   0.00000   0.00000   0.00000  -0.00000   0.00000   0.00000   0.00000  -0.00000 ...
  -0.00000   0.00000   0.00000   0.00000  -0.00000  -0.00000   0.00000   0.00000   0.00000   0.00000   0.00000  -0.00000 ...
   0.00000  -0.00000  -0.00000   0.00000  -0.00000  -0.00000  -0.00000  -0.00000   0.00000   0.00000   0.00000   0.00000 ...
  -0.00000  -0.00000  -0.00000   0.00000   0.00000  -0.00000  -0.00000  -0.00000   0.00000   0.00000  -0.00000  -0.00000 ...
  -0.00000   0.00000  -0.00000  -0.00000   0.00000  -0.00000  -0.00000   0.00000   0.00000   0.00000   0.00000   0.00000 ...
   0.00000   0.00000   0.00000   0.00000   0.00000   0.00000   0.00000   0.00000  -0.00000   0.00000   0.00000  -0.00000 ...
   0.00000   0.00000  -0.00000   0.00000   0.00000   0.00000   0.00000   0.00000   0.00000  -0.00000  -0.00000  -0.00000 ...
   0.00000   0.00000  -0.00000   0.00000   0.00000   0.00000  -0.00000   0.00000   0.00000  -0.00000   0.00000  -0.00000 ...
   0.00000   0.00000   0.00000  -0.00000  -0.00000   0.00000  -0.00000   0.00000  -0.00000  -0.00000  -0.00000  -0.00000 ...
   ...  only 12  components have been written...
   === IMAGINARY PART:
  -0.00000   0.00000  -0.00000   0.00000   0.00000   0.00000   0.00000  -0.00000  -0.00000  -0.00000  -0.00000  -0.00000 ...
  -0.00000  -0.00000  -0.00000   0.00000   0.00000  -0.00000   0.00000  -0.00000  -0.00000  -0.00000  -0.00000  -0.00000 ...
   0.00000   0.00000   0.00000  -0.00000  -0.00000   0.00000  -0.00000  -0.00000   0.00000  -0.00000  -0.00000  -0.00000 ...
  -0.00000  -0.00000   0.00000  -0.00000  -0.01433   0.00000  -0.00000  -0.07652  -0.00000   0.00000  -0.00000   0.00000 ...
  -0.00000  -0.00000   0.00000   0.01433  -0.00000   0.00000   0.07652  -0.00000   0.00000  -0.00000   0.00000  -0.00000 ...
  -0.00000   0.00000  -0.00000  -0.00000  -0.00000  -0.00000   0.00000   0.00000   0.00000  -0.00000   0.00000  -0.00000 ...
  -0.00000  -0.00000   0.00000   0.00000  -0.07652  -0.00000   0.00000   0.00147  -0.00000  -0.00000   0.00000   0.00000 ...
   0.00000   0.00000   0.00000   0.07652   0.00000  -0.00000  -0.00147  -0.00000  -0.00000  -0.00000  -0.00000   0.00000 ...
   0.00000   0.00000  -0.00000   0.00000  -0.00000  -0.00000   0.00000   0.00000  -0.00000  -0.00725  -0.00000   0.00000 ...
   0.00000   0.00000   0.00000  -0.00000   0.00000   0.00000   0.00000   0.00000   0.00725   0.00000   0.00000   0.00000 ...
   0.00000   0.00000   0.00000   0.00000  -0.00000  -0.00000  -0.00000   0.00000   0.00000  -0.00000   0.00000   0.01342 ...
   0.00000   0.00000   0.00000  -0.00000   0.00000   0.00000  -0.00000  -0.00000  -0.00000  -0.00000  -0.01342   0.00000 ...
   ...  only 12  components have been written...
 Atom #  1 - Component magn (z)
   === REAL PART:
   0.00000  -0.00000   0.00000   0.00000  -0.00000   0.00000   0.00000  -0.00000   0.00000   0.00000   0.00000   0.00000 ...
  -0.00000  -0.00000  -0.00000   0.00000   0.00000  -0.00000  -0.00000  -0.00000   0.00000   0.00000   0.00000   0.00000 ...
   0.00000  -0.00000  -0.00000   0.00000  -0.00000   0.00000  -0.00000   0.00000   0.00000   0.00000  -0.00000   0.00000 ...
   0.00000   0.00000   0.00000  -0.00000  -0.00000  -0.00000  -0.00000   0.00000   0.00000   0.00000   0.00000  -0.00000 ...
  -0.00000   0.00000  -0.00000  -0.00000  -0.00000  -0.00000   0.00000   0.00000  -0.00000   0.00000   0.00000   0.00000 ...
   0.00000  -0.00000   0.00000  -0.00000  -0.00000   0.00000  -0.00000  -0.00000   0.00000   0.00000   0.00000   0.00000 ...
   0.00000  -0.00000  -0.00000  -0.00000   0.00000  -0.00000   0.00000  -0.00000   0.00000   0.00000  -0.00000   0.00000 ...
  -0.00000  -0.00000   0.00000   0.00000   0.00000  -0.00000  -0.00000   0.00000   0.00000   0.00000   0.00000   0.00000 ...
   0.00000   0.00000   0.00000   0.00000  -0.00000   0.00000   0.00000   0.00000   0.00000  -0.00000   0.00000  -0.00000 ...
   0.00000   0.00000   0.00000   0.00000   0.00000   0.00000   0.00000   0.00000  -0.00000   0.00000   0.00000  -0.00000 ...
   0.00000   0.00000  -0.00000   0.00000   0.00000   0.00000  -0.00000   0.00000   0.00000   0.00000  -0.00000  -0.00000 ...
   0.00000   0.00000   0.00000  -0.00000   0.00000   0.00000   0.00000   0.00000  -0.00000  -0.00000  -0.00000  -0.00000 ...
   ...  only 12  components have been written...
   === IMAGINARY PART:
  -0.00000  -0.00000   0.00000  -0.00000   0.00000  -0.00000   0.00000  -0.00000  -0.00000  -0.00000  -0.00000  -0.00000 ...
   0.00000   0.00000   0.00000  -0.00000  -0.00000  -0.00000  -0.00000   0.00000  -0.00000  -0.00000  -0.00000  -0.00000 ...
  -0.00000  -0.00000  -0.00000   0.00000   0.01433  -0.00000   0.00000   0.07652  -0.00000   0.00000   0.00000  -0.00000 ...
   0.00000   0.00000  -0.00000   0.00000   0.00000  -0.00000  -0.00000   0.00000  -0.00000  -0.00000   0.00000  -0.00000 ...
  -0.00000   0.00000  -0.01433  -0.00000  -0.00000  -0.07652  -0.00000  -0.00000  -0.00000  -0.00000   0.00000   0.00000 ...
   0.00000   0.00000   0.00000   0.00000   0.07652  -0.00000  -0.00000  -0.00147   0.00000  -0.00000   0.00000  -0.00000 ...
  -0.00000   0.00000  -0.00000   0.00000   0.00000   0.00000  -0.00000  -0.00000  -0.00000   0.00000  -0.00000   0.00000 ...
   0.00000  -0.00000  -0.07652  -0.00000   0.00000   0.00147   0.00000  -0.00000   0.00000  -0.00000   0.00000  -0.00000 ...
   0.00000   0.00000   0.00000   0.00000   0.00000  -0.00000   0.00000  -0.00000  -0.00000   0.00000  -0.00000  -0.00000 ...
   0.00000   0.00000  -0.00000   0.00000   0.00000   0.00000  -0.00000   0.00000  -0.00000   0.00000  -0.00000  -0.00725 ...
   0.00000   0.00000  -0.00000  -0.00000  -0.00000  -0.00000   0.00000  -0.00000   0.00000   0.00000  -0.00000  -0.00000 ...
   0.00000   0.00000   0.00000   0.00000  -0.00000   0.00000  -0.00000   0.00000   0.00000   0.00725   0.00000   0.00000 ...
   ...  only 12  components have been written...
 
 "PAW+U" part of augmentation waves occupancies Rhoij:
 Atom #  1 - L=3 ONLY - Component dens (n)
   === REAL PART:
   1.06833  -0.00000  -0.08987   0.00000   0.00000   0.00000   0.00000   0.05964   0.00000  -0.00002   0.00000   0.00000   0.00000   0.00000
  -0.00000   0.93433   0.00000   0.00000   0.00000   0.00000  -0.00000   0.00000   0.06208   0.00000   0.00000   0.00000  -0.00000   0.00000
  -0.08987   0.00000   1.11473   0.00000  -0.00000   0.00000  -0.00000  -0.00002   0.00000   0.05965   0.00000   0.00000   0.00000   0.00000
   0.00000   0.00000   0.00000   0.99872   0.00000   0.00000   0.00000   0.00000   0.00000   0.00000   0.05962  -0.00000   0.00000   0.00000
   0.00000   0.00000  -0.00000   0.00000   1.11473   0.00000   0.08987   0.00000  -0.00000  -0.00000  -0.00000   0.05965   0.00000   0.00002
   0.00000   0.00000   0.00000   0.00000   0.00000   1.18434   0.00000   0.00000   0.00000   0.00000   0.00000   0.00000   0.05967   0.00000
   0.00000  -0.00000  -0.00000   0.00000   0.08987   0.00000   1.06833   0.00000   0.00000   0.00000   0.00000   0.00002   0.00000   0.05964
   0.05964   0.00000  -0.00002   0.00000   0.00000   0.00000   0.00000   0.00816  -0.00000   0.00140   0.00000  -0.00000   0.00000   0.00000
   0.00000   0.06208   0.00000   0.00000  -0.00000   0.00000   0.00000  -0.00000   0.01204   0.00000   0.00000   0.00000  -0.00000  -0.00000
  -0.00002   0.00000   0.05965   0.00000  -0.00000   0.00000   0.00000   0.00140   0.00000   0.00744   0.00000   0.00000   0.00000  -0.00000
   0.00000   0.00000   0.00000   0.05962  -0.00000   0.00000   0.00000   0.00000   0.00000   0.00000   0.00924  -0.00000   0.00000  -0.00000
   0.00000   0.00000   0.00000  -0.00000   0.05965   0.00000   0.00002  -0.00000   0.00000   0.00000  -0.00000   0.00744   0.00000  -0.00140
   0.00000  -0.00000   0.00000   0.00000   0.00000   0.05967   0.00000   0.00000  -0.00000   0.00000   0.00000   0.00000   0.00636   0.00000
   0.00000   0.00000   0.00000   0.00000   0.00002   0.00000   0.05964   0.00000  -0.00000  -0.00000  -0.00000  -0.00140   0.00000   0.00816
   === IMAGINARY PART:
  -0.00000   0.00000  -0.00000  -0.00000  -0.00000  -0.00000  -0.00000   0.00000  -0.00000   0.00000  -0.00000   0.00000  -0.00000   0.00000
  -0.00000  -0.00000  -0.00000  -0.00000  -0.00000   0.00000  -0.00000   0.00000  -0.00000  -0.00000  -0.00000  -0.00000   0.00000   0.00000
   0.00000   0.00000  -0.00000  -0.00000  -0.00000   0.00000   0.00000   0.00000   0.00000  -0.00000   0.00000  -0.00000  -0.00000  -0.00000
   0.00000   0.00000   0.00000  -0.00000  -0.00000  -0.00000   0.00000  -0.00000  -0.00000  -0.00000   0.00000  -0.00000  -0.00000  -0.00000
   0.00000   0.00000   0.00000   0.00000  -0.00000   0.00000   0.00000  -0.00000  -0.00000   0.00000  -0.00000  -0.00000   0.00000  -0.00000
   0.00000  -0.00000  -0.00000   0.00000  -0.00000  -0.00000  -0.00000  -0.00000   0.00000  -0.00000  -0.00000  -0.00000  -0.00000  -0.00000
   0.00000   0.00000  -0.00000  -0.00000  -0.00000   0.00000  -0.00000  -0.00000  -0.00000   0.00000  -0.00000  -0.00000   0.00000   0.00000
  -0.00000  -0.00000  -0.00000   0.00000   0.00000   0.00000   0.00000  -0.00000  -0.00000  -0.00000  -0.00000   0.00000  -0.00000   0.00000
   0.00000   0.00000  -0.00000   0.00000   0.00000  -0.00000   0.00000   0.00000   0.00000  -0.00000  -0.00000  -0.00000   0.00000   0.00000
  -0.00000   0.00000   0.00000   0.00000  -0.00000   0.00000  -0.00000   0.00000   0.00000  -0.00000  -0.00000  -0.00000  -0.00000  -0.00000
   0.00000   0.00000  -0.00000  -0.00000   0.00000   0.00000   0.00000   0.00000   0.00000   0.00000  -0.00000  -0.00000  -0.00000  -0.00000
  -0.00000   0.00000   0.00000   0.00000   0.00000   0.00000   0.00000  -0.00000   0.00000   0.00000   0.00000  -0.00000  -0.00000   0.00000
   0.00000  -0.00000   0.00000   0.00000  -0.00000   0.00000  -0.00000   0.00000  -0.00000   0.00000   0.00000   0.00000  -0.00000  -0.00000
  -0.00000  -0.00000   0.00000   0.00000   0.00000   0.00000  -0.00000  -0.00000  -0.00000   0.00000   0.00000  -0.00000   0.00000  -0.00000
 Atom #  1 - L=3 ONLY - Component magn (x)
   === REAL PART:
   0.00000  -0.00000   0.00000   0.00000  -0.00000   0.00000  -0.00000   0.00000  -0.00000   0.00000   0.00000  -0.00000   0.00000   0.00000
  -0.00000  -0.00000  -0.00000   0.00000   0.00000  -0.00000   0.00000  -0.00000  -0.00000  -0.00000   0.00000   0.00000  -0.00000   0.00000
   0.00000  -0.00000   0.00000  -0.00000  -0.00000   0.00000  -0.00000   0.00000   0.00000   0.00000  -0.00000   0.00000   0.00000   0.00000
   0.00000   0.00000  -0.00000   0.00000   0.00000   0.00000   0.00000   0.00000   0.00000  -0.00000   0.00000   0.00000   0.00000  -0.00000
  -0.00000   0.00000  -0.00000   0.00000  -0.00000  -0.00000  -0.00000  -0.00000  -0.00000  -0.00000   0.00000  -0.00000  -0.00000   0.00000
   0.00000  -0.00000   0.00000   0.00000  -0.00000   0.00000   0.00000   0.00000   0.00000   0.00000   0.00000  -0.00000   0.00000   0.00000
  -0.00000   0.00000  -0.00000   0.00000  -0.00000   0.00000  -0.00000  -0.00000  -0.00000  -0.00000   0.00000  -0.00000  -0.00000  -0.00000
   0.00000  -0.00000   0.00000   0.00000  -0.00000   0.00000  -0.00000   0.00000  -0.00000   0.00000   0.00000  -0.00000   0.00000   0.00000
  -0.00000  -0.00000   0.00000   0.00000  -0.00000   0.00000  -0.00000  -0.00000  -0.00000  -0.00000   0.00000  -0.00000   0.00000  -0.00000
   0.00000  -0.00000   0.00000  -0.00000  -0.00000   0.00000  -0.00000   0.00000  -0.00000   0.00000  -0.00000  -0.00000   0.00000  -0.00000
   0.00000   0.00000  -0.00000   0.00000   0.00000   0.00000   0.00000   0.00000   0.00000  -0.00000   0.00000   0.00000   0.00000   0.00000
  -0.00000   0.00000   0.00000   0.00000  -0.00000  -0.00000  -0.00000  -0.00000  -0.00000  -0.00000   0.00000   0.00000  -0.00000   0.00000
   0.00000  -0.00000   0.00000   0.00000  -0.00000   0.00000  -0.00000   0.00000   0.00000   0.00000   0.00000  -0.00000   0.00000  -0.00000
   0.00000   0.00000   0.00000  -0.00000   0.00000   0.00000  -0.00000   0.00000  -0.00000  -0.00000   0.00000   0.00000  -0.00000  -0.00000
   === IMAGINARY PART:
   0.00000  -0.00000  -0.00000  -0.02130  -0.00000   0.17832  -0.00000   0.00000   0.00000  -0.00000   0.00118  -0.00000   0.00338  -0.00000
   0.00000  -0.00000  -0.00000  -0.00000   0.22473  -0.00000   0.17407   0.00000   0.00000  -0.00000  -0.00000   0.00427  -0.00000   0.00331
   0.00000   0.00000  -0.00000   0.34315  -0.00000   0.23409   0.00000  -0.00000  -0.00000  -0.00000   0.00064  -0.00000   0.00482  -0.00000
   0.02130   0.00000  -0.34315  -0.00000   0.00000  -0.00000   0.00000   0.00240  -0.00000  -0.00526  -0.00000   0.00000  -0.00000   0.00000
   0.00000  -0.22473   0.00000  -0.00000  -0.00000   0.00000  -0.00000  -0.00000   0.00137   0.00000  -0.00000  -0.00000   0.00000   0.00000
  -0.17832   0.00000  -0.23409   0.00000  -0.00000   0.00000   0.00000   0.00123  -0.00000  -0.00124  -0.00000  -0.00000  -0.00000  -0.00000
   0.00000  -0.17407  -0.00000  -0.00000   0.00000  -0.00000  -0.00000   0.00000   0.00106  -0.00000   0.00000  -0.00000  -0.00000   0.00000
  -0.00000  -0.00000   0.00000  -0.00240   0.00000  -0.00123  -0.00000  -0.00000   0.00000   0.00000   0.00008  -0.00000  -0.00032   0.00000
  -0.00000  -0.00000   0.00000   0.00000  -0.00137   0.00000  -0.00106  -0.00000  -0.00000   0.00000  -0.00000  -0.00031   0.00000  -0.00024
   0.00000   0.00000   0.00000   0.00526  -0.00000   0.00124   0.00000  -0.00000  -0.00000  -0.00000  -0.00043   0.00000  -0.00022   0.00000
  -0.00118   0.00000  -0.00064   0.00000   0.00000   0.00000  -0.00000  -0.00008   0.00000   0.00043   0.00000  -0.00000  -0.00000  -0.00000
   0.00000  -0.00427   0.00000  -0.00000   0.00000   0.00000   0.00000   0.00000   0.00031  -0.00000   0.00000  -0.00000  -0.00000  -0.00000
  -0.00338   0.00000  -0.00482   0.00000  -0.00000   0.00000   0.00000   0.00032  -0.00000   0.00022   0.00000   0.00000   0.00000  -0.00000
   0.00000  -0.00331   0.00000  -0.00000  -0.00000   0.00000  -0.00000  -0.00000   0.00024  -0.00000   0.00000   0.00000   0.00000  -0.00000
 Atom #  1 - L=3 ONLY - Component magn (y)
   === REAL PART:
  -0.00000   0.00000  -0.00000   0.00000   0.00000   0.00000   0.00000  -0.00000  -0.00000   0.00000  -0.00000   0.00000  -0.00000  -0.00000
   0.00000  -0.00000  -0.00000   0.00000  -0.00000   0.00000   0.00000   0.00000  -0.00000  -0.00000   0.00000  -0.00000   0.00000   0.00000
  -0.00000  -0.00000  -0.00000   0.00000   0.00000   0.00000   0.00000  -0.00000   0.00000   0.00000  -0.00000  -0.00000   0.00000   0.00000
   0.00000   0.00000   0.00000   0.00000   0.00000   0.00000   0.00000   0.00000   0.00000   0.00000   0.00000   0.00000   0.00000   0.00000
   0.00000  -0.00000   0.00000   0.00000   0.00000   0.00000   0.00000  -0.00000  -0.00000   0.00000   0.00000   0.00000   0.00000  -0.00000
   0.00000   0.00000   0.00000   0.00000   0.00000   0.00000  -0.00000   0.00000  -0.00000   0.00000   0.00000   0.00000   0.00000  -0.00000
   0.00000   0.00000   0.00000   0.00000   0.00000  -0.00000  -0.00000  -0.00000   0.00000   0.00000   0.00000   0.00000  -0.00000   0.00000
  -0.00000   0.00000  -0.00000   0.00000  -0.00000   0.00000  -0.00000   0.00000  -0.00000  -0.00000  -0.00000   0.00000  -0.00000   0.00000
  -0.00000  -0.00000   0.00000   0.00000  -0.00000  -0.00000   0.00000  -0.00000  -0.00000   0.00000   0.00000  -0.00000  -0.00000   0.00000
   0.00000  -0.00000   0.00000   0.00000   0.00000   0.00000   0.00000  -0.00000   0.00000   0.00000  -0.00000   0.00000   0.00000   0.00000
  -0.00000   0.00000  -0.00000   0.00000   0.00000   0.00000   0.00000  -0.00000   0.00000  -0.00000   0.00000   0.00000   0.00000   0.00000
   0.00000  -0.00000  -0.00000   0.00000   0.00000   0.00000   0.00000   0.00000  -0.00000   0.00000   0.00000  -0.00000   0.00000  -0.00000
  -0.00000   0.00000   0.00000   0.00000   0.00000   0.00000  -0.00000  -0.00000  -0.00000   0.00000   0.00000   0.00000  -0.00000  -0.00000
  -0.00000   0.00000   0.00000   0.00000  -0.00000  -0.00000   0.00000   0.00000   0.00000   0.00000   0.00000  -0.00000  -0.00000   0.00000
   === IMAGINARY PART:
  -0.00000  -0.17407   0.00000  -0.00000   0.00000   0.00000   0.00000  -0.00000   0.00106  -0.00000   0.00000   0.00000   0.00000   0.00000
   0.17407  -0.00000  -0.22473  -0.00000   0.00000   0.00000   0.00000   0.00331   0.00000  -0.00427  -0.00000   0.00000   0.00000   0.00000
  -0.00000   0.22473  -0.00000   0.00000   0.00000   0.00000  -0.00000  -0.00000  -0.00137  -0.00000   0.00000   0.00000   0.00000   0.00000
   0.00000   0.00000  -0.00000   0.00000   0.34315  -0.00000   0.02130   0.00000  -0.00000  -0.00000  -0.00000   0.00526  -0.00000   0.00240
  -0.00000  -0.00000  -0.00000  -0.34315  -0.00000   0.23409  -0.00000   0.00000   0.00000  -0.00000  -0.00064  -0.00000   0.00482   0.00000
  -0.00000  -0.00000  -0.00000   0.00000  -0.23409   0.00000   0.17832   0.00000   0.00000  -0.00000  -0.00000  -0.00124  -0.00000  -0.00123
  -0.00000  -0.00000   0.00000  -0.02130   0.00000  -0.17832   0.00000  -0.00000   0.00000   0.00000   0.00118   0.00000  -0.00338   0.00000
   0.00000  -0.00331   0.00000  -0.00000  -0.00000  -0.00000   0.00000   0.00000   0.00024   0.00000   0.00000   0.00000  -0.00000  -0.00000
  -0.00106  -0.00000   0.00137   0.00000  -0.00000  -0.00000  -0.00000  -0.00024  -0.00000   0.00031  -0.00000  -0.00000  -0.00000  -0.00000
   0.00000   0.00427   0.00000   0.00000   0.00000   0.00000  -0.00000  -0.00000  -0.00031  -0.00000  -0.00000  -0.00000  -0.00000  -0.00000
  -0.00000   0.00000  -0.00000   0.00000   0.00064   0.00000  -0.00118  -0.00000   0.00000   0.00000  -0.00000  -0.00043  -0.00000  -0.00008
  -0.00000  -0.00000  -0.00000  -0.00526   0.00000   0.00124  -0.00000  -0.00000   0.00000   0.00000   0.00043   0.00000  -0.00022   0.00000
  -0.00000  -0.00000  -0.00000   0.00000  -0.00482   0.00000   0.00338   0.00000   0.00000   0.00000   0.00000   0.00022  -0.00000  -0.00032
  -0.00000  -0.00000  -0.00000  -0.00240  -0.00000   0.00123  -0.00000   0.00000   0.00000   0.00000   0.00008  -0.00000   0.00032  -0.00000
 Atom #  1 - L=3 ONLY - Component magn (z)
   === REAL PART:
   0.00000  -0.00000   0.00000  -0.00000  -0.00000  -0.00000  -0.00000  -0.00000   0.00000   0.00000  -0.00000  -0.00000  -0.00000   0.00000
  -0.00000  -0.00000   0.00000   0.00000  -0.00000  -0.00000  -0.00000  -0.00000   0.00000   0.00000   0.00000  -0.00000  -0.00000   0.00000
   0.00000   0.00000   0.00000   0.00000   0.00000  -0.00000  -0.00000  -0.00000  -0.00000   0.00000   0.00000   0.00000  -0.00000  -0.00000
  -0.00000   0.00000   0.00000  -0.00000  -0.00000   0.00000  -0.00000  -0.00000   0.00000   0.00000  -0.00000  -0.00000   0.00000  -0.00000
  -0.00000  -0.00000   0.00000  -0.00000   0.00000  -0.00000  -0.00000  -0.00000   0.00000  -0.00000  -0.00000   0.00000  -0.00000   0.00000
  -0.00000  -0.00000  -0.00000   0.00000  -0.00000  -0.00000  -0.00000  -0.00000   0.00000   0.00000   0.00000  -0.00000   0.00000   0.00000
  -0.00000  -0.00000  -0.00000  -0.00000  -0.00000  -0.00000   0.00000  -0.00000   0.00000  -0.00000  -0.00000  -0.00000   0.00000  -0.00000
  -0.00000  -0.00000  -0.00000  -0.00000  -0.00000  -0.00000  -0.00000  -0.00000   0.00000   0.00000  -0.00000  -0.00000  -0.00000  -0.00000
   0.00000   0.00000  -0.00000   0.00000   0.00000   0.00000   0.00000   0.00000   0.00000  -0.00000   0.00000   0.00000   0.00000   0.00000
   0.00000   0.00000   0.00000   0.00000  -0.00000   0.00000  -0.00000   0.00000  -0.00000   0.00000   0.00000   0.00000  -0.00000  -0.00000
  -0.00000   0.00000   0.00000  -0.00000  -0.00000   0.00000  -0.00000  -0.00000   0.00000   0.00000  -0.00000  -0.00000   0.00000  -0.00000
  -0.00000  -0.00000   0.00000  -0.00000   0.00000  -0.00000  -0.00000  -0.00000   0.00000   0.00000  -0.00000   0.00000  -0.00000  -0.00000
  -0.00000  -0.00000  -0.00000   0.00000  -0.00000   0.00000   0.00000  -0.00000   0.00000  -0.00000   0.00000  -0.00000   0.00000   0.00000
   0.00000   0.00000  -0.00000  -0.00000   0.00000   0.00000  -0.00000  -0.00000   0.00000  -0.00000  -0.00000  -0.00000   0.00000  -0.00000
   === IMAGINARY PART:
   0.00000   0.00000  -0.00000   0.00000  -0.01423  -0.00000  -0.42456  -0.00000  -0.00000   0.00000  -0.00000  -0.00379  -0.00000  -0.00410
  -0.00000   0.00000   0.00000  -0.00000  -0.00000  -0.28426  -0.00000  -0.00000   0.00000   0.00000  -0.00000  -0.00000  -0.00540  -0.00000
   0.00000  -0.00000   0.00000  -0.00000  -0.15539  -0.00000   0.01423   0.00000   0.00000  -0.00000  -0.00000  -0.00104  -0.00000  -0.00204
  -0.00000   0.00000   0.00000  -0.00000  -0.00000  -0.00000  -0.00000  -0.00000  -0.00000   0.00000  -0.00000  -0.00000  -0.00000  -0.00000
   0.01423   0.00000   0.15539   0.00000   0.00000  -0.00000  -0.00000  -0.00204  -0.00000   0.00104   0.00000  -0.00000  -0.00000   0.00000
   0.00000   0.28426   0.00000   0.00000   0.00000   0.00000  -0.00000  -0.00000  -0.00173   0.00000  -0.00000   0.00000   0.00000   0.00000
   0.42456   0.00000  -0.01423   0.00000   0.00000   0.00000   0.00000   0.00410  -0.00000  -0.00379  -0.00000  -0.00000   0.00000  -0.00000
   0.00000   0.00000  -0.00000   0.00000   0.00204   0.00000  -0.00410   0.00000  -0.00000   0.00000  -0.00000  -0.00001   0.00000   0.00050
   0.00000  -0.00000  -0.00000   0.00000   0.00000   0.00173   0.00000   0.00000   0.00000  -0.00000  -0.00000   0.00000   0.00039   0.00000
  -0.00000  -0.00000   0.00000  -0.00000  -0.00104  -0.00000   0.00379  -0.00000   0.00000  -0.00000   0.00000   0.00031   0.00000   0.00001
   0.00000   0.00000   0.00000   0.00000  -0.00000   0.00000   0.00000   0.00000   0.00000  -0.00000  -0.00000   0.00000  -0.00000   0.00000
   0.00379   0.00000   0.00104   0.00000   0.00000  -0.00000   0.00000   0.00001  -0.00000  -0.00031  -0.00000  -0.00000   0.00000  -0.00000
   0.00000   0.00540   0.00000   0.00000   0.00000  -0.00000  -0.00000  -0.00000  -0.00039  -0.00000   0.00000  -0.00000   0.00000   0.00000
   0.00410   0.00000   0.00204   0.00000  -0.00000  -0.00000   0.00000  -0.00050  -0.00000  -0.00001  -0.00000   0.00000  -0.00000   0.00000
 
 ---------- DFT+U DATA --------------------------------------------------- 
 
 ====== For Atom     1, occupations for correlated orbitals. lpawu =   3
 
 => On atom   1, for  lpawu, local Mag. x is    -0.95738974E-25
                             local Mag. y is    -0.51358054E-24
                             local Mag. z is    -0.34985807E-23
                             norm of Mag. is     0.35373716E-23
         (along mag axis)    occ. for majority spin is =      3.64046
         (along mag axis)    occ. for minority spin is =      3.64046
 
 == Occupation matrix for correlated orbitals:
 
 Occupation matrix for component up-up
  (  0.51972, -0.00000) ( -0.00000,  0.00000) ( -0.04397, -0.00000) ( -0.00000,  0.00000) ( -0.00000, -0.00692) ( -0.00000, -0.00000) (  0.00000, -0.20754) (
  ( -0.00000, -0.00000) (  0.45403, -0.00000) ( -0.00000,  0.00000) (  0.00000, -0.00000) (  0.00000, -0.00000) ( -0.00000, -0.13900) ( -0.00000, -0.00000) (
  ( -0.04397,  0.00000) ( -0.00000, -0.00000) (  0.54243, -0.00000) ( -0.00000, -0.00000) ( -0.00000, -0.07599) ( -0.00000, -0.00000) ( -0.00000,  0.00692) (
  ( -0.00000, -0.00000) (  0.00000,  0.00000) ( -0.00000,  0.00000) (  0.48566, -0.00000) (  0.00000, -0.00000) (  0.00000, -0.00000) ( -0.00000, -0.00000) (
  ( -0.00000,  0.00692) (  0.00000,  0.00000) ( -0.00000,  0.07599) (  0.00000,  0.00000) (  0.54243, -0.00000) (  0.00000, -0.00000) (  0.04397, -0.00000) (
  ( -0.00000,  0.00000) ( -0.00000,  0.13900) ( -0.00000,  0.00000) (  0.00000,  0.00000) (  0.00000,  0.00000) (  0.57649, -0.00000) ( -0.00000, -0.00000) (
  (  0.00000,  0.20754) ( -0.00000,  0.00000) ( -0.00000, -0.00692) ( -0.00000,  0.00000) (  0.04397,  0.00000) ( -0.00000,  0.00000) (  0.51972, -0.00000) (
 
 
 Occupation matrix for component dwn-dwn
  (  0.51972, -0.00000) ( -0.00000, -0.00000) ( -0.04397,  0.00000) (  0.00000, -0.00000) (  0.00000,  0.00692) (  0.00000,  0.00000) (  0.00000,  0.20754) (
  ( -0.00000,  0.00000) (  0.45403, -0.00000) ( -0.00000, -0.00000) (  0.00000,  0.00000) (  0.00000,  0.00000) (  0.00000,  0.13900) ( -0.00000,  0.00000) (
  ( -0.04397, -0.00000) ( -0.00000,  0.00000) (  0.54243, -0.00000) ( -0.00000,  0.00000) ( -0.00000,  0.07599) (  0.00000,  0.00000) (  0.00000, -0.00692) (
  (  0.00000,  0.00000) (  0.00000,  0.00000) ( -0.00000, -0.00000) (  0.48566, -0.00000) (  0.00000,  0.00000) (  0.00000,  0.00000) ( -0.00000,  0.00000) (
  (  0.00000, -0.00692) (  0.00000, -0.00000) ( -0.00000, -0.07599) (  0.00000, -0.00000) (  0.54243, -0.00000) ( -0.00000,  0.00000) (  0.04397,  0.00000) (
  (  0.00000, -0.00000) (  0.00000, -0.13900) (  0.00000, -0.00000) (  0.00000,  0.00000) ( -0.00000, -0.00000) (  0.57649, -0.00000) (  0.00000,  0.00000) (
  (  0.00000, -0.20754) ( -0.00000, -0.00000) (  0.00000,  0.00692) ( -0.00000, -0.00000) (  0.04397, -0.00000) (  0.00000, -0.00000) (  0.51972, -0.00000) (
 
 
 Occupation matrix for component up-dwn
  ( -0.00000, -0.00000) ( -0.08512, -0.00000) (  0.00000,  0.00000) (  0.00000, -0.01039) (  0.00000, -0.00000) (  0.00000,  0.08720) (  0.00000, -0.00000) (
  (  0.08512, -0.00000) ( -0.00000,  0.00000) ( -0.10989,  0.00000) (  0.00000, -0.00000) (  0.00000,  0.10989) (  0.00000, -0.00000) (  0.00000,  0.08512) (
  ( -0.00000, -0.00000) (  0.10989,  0.00000) ( -0.00000,  0.00000) ( -0.00000,  0.16776) (  0.00000, -0.00000) (  0.00000,  0.11439) ( -0.00000,  0.00000) (
  (  0.00000,  0.01039) (  0.00000,  0.00000) ( -0.00000, -0.16776) ( -0.00000, -0.00000) (  0.16776, -0.00000) (  0.00000, -0.00000) (  0.01039, -0.00000) (
  ( -0.00000,  0.00000) (  0.00000, -0.10989) ( -0.00000,  0.00000) ( -0.16776, -0.00000) (  0.00000,  0.00000) (  0.11439, -0.00000) ( -0.00000, -0.00000) (
  (  0.00000, -0.08720) ( -0.00000,  0.00000) (  0.00000, -0.11439) (  0.00000,  0.00000) ( -0.11439, -0.00000) ( -0.00000,  0.00000) (  0.08720,  0.00000) (
  ( -0.00000,  0.00000) (  0.00000, -0.08512) (  0.00000, -0.00000) ( -0.01039, -0.00000) (  0.00000,  0.00000) ( -0.08720,  0.00000) (  0.00000,  0.00000) (
 
 
 Occupation matrix for component dwn-up
  ( -0.00000,  0.00000) (  0.08512,  0.00000) ( -0.00000,  0.00000) (  0.00000, -0.01039) ( -0.00000, -0.00000) (  0.00000,  0.08720) ( -0.00000, -0.00000) (
  ( -0.08512,  0.00000) ( -0.00000, -0.00000) (  0.10989, -0.00000) (  0.00000,  0.00000) (  0.00000,  0.10989) ( -0.00000, -0.00000) (  0.00000,  0.08512) (
  (  0.00000, -0.00000) ( -0.10989, -0.00000) ( -0.00000, -0.00000) ( -0.00000,  0.16776) ( -0.00000, -0.00000) (  0.00000,  0.11439) (  0.00000,  0.00000) (
  (  0.00000,  0.01039) (  0.00000,  0.00000) ( -0.00000, -0.16776) ( -0.00000,  0.00000) ( -0.16776,  0.00000) (  0.00000,  0.00000) ( -0.01039,  0.00000) (
  (  0.00000,  0.00000) (  0.00000, -0.10989) (  0.00000,  0.00000) (  0.16776,  0.00000) (  0.00000, -0.00000) ( -0.11439,  0.00000) (  0.00000, -0.00000) (
  (  0.00000, -0.08720) (  0.00000,  0.00000) (  0.00000, -0.11439) (  0.00000,  0.00000) (  0.11439,  0.00000) ( -0.00000, -0.00000) ( -0.08720, -0.00000) (
  (  0.00000,  0.00000) (  0.00000, -0.08512) ( -0.00000, -0.00000) (  0.01039,  0.00000) ( -0.00000,  0.00000) (  0.08720, -0.00000) (  0.00000, -0.00000) (
 
 
 
== Occupation matrix in the complex harmonics basis for component up-up
  (  0.72726, -0.00000) (  0.00000,  0.00000) (  0.00000, -0.00000) ( -0.00000,  0.00000) ( -0.05089,  0.00000) ( -0.00000, -0.00000) (  0.00000, -0.00000) (
  (  0.00000, -0.00000) (  0.65426, -0.00000) (  0.00000,  0.00000) (  0.00000,  0.00000) ( -0.00000, -0.00000) (  0.06123, -0.00000) ( -0.00000, -0.00000) (
  (  0.00000,  0.00000) (  0.00000, -0.00000) (  0.61841, -0.00000) (  0.00000,  0.00000) (  0.00000,  0.00000) ( -0.00000, -0.00000) ( -0.03705,  0.00000) (
  ( -0.00000, -0.00000) (  0.00000,  0.00000) (  0.00000, -0.00000) (  0.48566, -0.00000) (  0.00000,  0.00000) (  0.00000,  0.00000) ( -0.00000,  0.00000) (
  ( -0.05089, -0.00000) ( -0.00000,  0.00000) (  0.00000, -0.00000) (  0.00000, -0.00000) (  0.46644, -0.00000) (  0.00000,  0.00000) (  0.00000,  0.00000) (
  ( -0.00000,  0.00000) (  0.06123,  0.00000) ( -0.00000,  0.00000) (  0.00000,  0.00000) (  0.00000, -0.00000) (  0.37625, -0.00000) (  0.00000,  0.00000) (
  ( -0.00000,  0.00000) ( -0.00000,  0.00000) ( -0.03705, -0.00000) ( -0.00000, -0.00000) (  0.00000, -0.00000) (  0.00000, -0.00000) (  0.31218, -0.00000) (
 
== Occupation matrix in the complex harmonics basis for component dwn-dwn
  (  0.31218, -0.00000) ( -0.00000, -0.00000) (  0.00000, -0.00000) (  0.00000, -0.00000) ( -0.03705, -0.00000) (  0.00000,  0.00000) ( -0.00000, -0.00000) (
  ( -0.00000,  0.00000) (  0.37625, -0.00000) ( -0.00000, -0.00000) (  0.00000,  0.00000) (  0.00000,  0.00000) (  0.06123,  0.00000) (  0.00000,  0.00000) (
  (  0.00000,  0.00000) ( -0.00000,  0.00000) (  0.46644, -0.00000) ( -0.00000, -0.00000) (  0.00000,  0.00000) (  0.00000,  0.00000) ( -0.05089, -0.00000) (
  (  0.00000,  0.00000) (  0.00000,  0.00000) ( -0.00000,  0.00000) (  0.48566, -0.00000) ( -0.00000, -0.00000) (  0.00000,  0.00000) (  0.00000, -0.00000) (
  ( -0.03705,  0.00000) (  0.00000, -0.00000) (  0.00000, -0.00000) ( -0.00000,  0.00000) (  0.61841, -0.00000) ( -0.00000, -0.00000) (  0.00000,  0.00000) (
  (  0.00000, -0.00000) (  0.06123, -0.00000) (  0.00000, -0.00000) (  0.00000,  0.00000) ( -0.00000,  0.00000) (  0.65426, -0.00000) ( -0.00000, -0.00000) (
  (  0.00000,  0.00000) (  0.00000, -0.00000) ( -0.05089,  0.00000) (  0.00000,  0.00000) (  0.00000, -0.00000) ( -0.00000,  0.00000) (  0.72726, -0.00000) (
 
== Occupation matrix in the complex harmonics basis for component up-dwn
  (  0.00000,  0.00000) ( -0.17232,  0.00000) (  0.00000, -0.00000) (  0.00000,  0.00000) ( -0.00000, -0.00000) ( -0.00208,  0.00000) ( -0.00000, -0.00000) (
  (  0.00000,  0.00000) (  0.00000,  0.00000) ( -0.22428, -0.00000) (  0.00000,  0.00000) (  0.00000,  0.00000) (  0.00000, -0.00000) ( -0.00208, -0.00000) (
  (  0.00000, -0.00000) (  0.00000, -0.00000) (  0.00000,  0.00000) ( -0.23725, -0.00000) ( -0.00000,  0.00000) (  0.00000,  0.00000) (  0.00000,  0.00000) (
  (  0.01470, -0.00000) (  0.00000,  0.00000) (  0.00000,  0.00000) ( -0.00000, -0.00000) ( -0.23725,  0.00000) (  0.00000,  0.00000) (  0.00000,  0.00000) (
  ( -0.00000, -0.00000) ( -0.00450,  0.00000) ( -0.00000, -0.00000) (  0.00000,  0.00000) ( -0.00000, -0.00000) ( -0.22428,  0.00000) ( -0.00000,  0.00000) (
  (  0.00000,  0.00000) (  0.00000, -0.00000) ( -0.00450, -0.00000) (  0.00000,  0.00000) (  0.00000,  0.00000) ( -0.00000, -0.00000) ( -0.17232, -0.00000) (
  ( -0.00000, -0.00000) (  0.00000,  0.00000) (  0.00000,  0.00000) (  0.01470,  0.00000) ( -0.00000,  0.00000) (  0.00000,  0.00000) ( -0.00000, -0.00000) (
 
== Occupation matrix in the complex harmonics basis for component dwn-up
  (  0.00000, -0.00000) (  0.00000,  0.00000) (  0.00000,  0.00000) (  0.01470,  0.00000) ( -0.00000,  0.00000) (  0.00000,  0.00000) ( -0.00000,  0.00000) (
  ( -0.17232, -0.00000) (  0.00000, -0.00000) (  0.00000,  0.00000) (  0.00000,  0.00000) ( -0.00450, -0.00000) (  0.00000,  0.00000) (  0.00000,  0.00000) (
  (  0.00000,  0.00000) ( -0.22428,  0.00000) (  0.00000, -0.00000) (  0.00000,  0.00000) ( -0.00000,  0.00000) ( -0.00450,  0.00000) (  0.00000, -0.00000) (
  (  0.00000,  0.00000) (  0.00000,  0.00000) ( -0.23725,  0.00000) ( -0.00000,  0.00000) (  0.00000,  0.00000) (  0.00000,  0.00000) (  0.01470, -0.00000) (
  ( -0.00000,  0.00000) (  0.00000,  0.00000) ( -0.00000, -0.00000) ( -0.23725, -0.00000) ( -0.00000,  0.00000) (  0.00000, -0.00000) ( -0.00000, -0.00000) (
  ( -0.00208, -0.00000) (  0.00000,  0.00000) (  0.00000,  0.00000) (  0.00000,  0.00000) ( -0.22428, -0.00000) ( -0.00000,  0.00000) (  0.00000,  0.00000) (
  ( -0.00000,  0.00000) ( -0.00208,  0.00000) (  0.00000, -0.00000) (  0.00000,  0.00000) ( -0.00000, -0.00000) ( -0.17232,  0.00000) ( -0.00000,  0.00000) (
 
 
 
== Occupation matrix in the J (= L-1/2, L+1/2) and M_J basis
  (  0.798, -0.000) ( -0.000,  0.000) (  0.000, -0.000) (  0.000,  0.000) ( -0.003,  0.000) (  0.000, -0.000) ( -0.000, -0.000) (  0.000, -0.000) ( -0.000, -0.000) (  0.000,  0.000) (  0.000,  0.000) (  0.052, -0.000) (  0.000,  0.000) (  0.000,  0.000) (
  ( -0.000, -0.000) (  0.803, -0.000) (  0.000,  0.000) (  0.000,  0.000) (  0.000,  0.000) ( -0.003, -0.000) (  0.000,  0.000) ( -0.000, -0.000) (  0.011,  0.000) ( -0.000, -0.000) (  0.000,  0.000) (  0.000,  0.000) ( -0.060,  0.000) (  0.000, -0.000) (
  (  0.000,  0.000) (  0.000, -0.000) (  0.796, -0.000) ( -0.000,  0.000) (  0.000,  0.000) ( -0.000, -0.000) ( -0.000,  0.000) (  0.000, -0.000) ( -0.000,  0.000) ( -0.032,  0.000) ( -0.000, -0.000) (  0.000, -0.000) ( -0.000, -0.000) (  0.038, -0.000) (
  (  0.000, -0.000) (  0.000, -0.000) ( -0.000, -0.000) (  0.796, -0.000) ( -0.000, -0.000) (  0.000,  0.000) ( -0.038,  0.000) ( -0.000,  0.000) (  0.000, -0.000) ( -0.000,  0.000) (  0.032, -0.000) ( -0.000, -0.000) (  0.000,  0.000) ( -0.000, -0.000) (
  ( -0.003, -0.000) (  0.000, -0.000) (  0.000, -0.000) ( -0.000,  0.000) (  0.803, -0.000) (  0.000, -0.000) (  0.000,  0.000) (  0.060, -0.000) (  0.000, -0.000) (  0.000,  0.000) ( -0.000,  0.000) ( -0.011, -0.000) ( -0.000,  0.000) (  0.000, -0.000) (
  (  0.000,  0.000) ( -0.003,  0.000) ( -0.000,  0.000) (  0.000, -0.000) (  0.000,  0.000) (  0.798, -0.000) (  0.000,  0.000) (  0.000, -0.000) ( -0.052,  0.000) (  0.000, -0.000) (  0.000, -0.000) ( -0.000,  0.000) ( -0.000,  0.000) ( -0.000,  0.000) (
  ( -0.000,  0.000) (  0.000, -0.000) ( -0.000, -0.000) ( -0.038, -0.000) (  0.000, -0.000) ( -0.000, -0.000) (  0.312, -0.000) ( -0.000, -0.000) (  0.000, -0.000) (  0.000,  0.000) ( -0.013, -0.000) ( -0.000,  0.000) ( -0.000, -0.000) ( -0.000,  0.000) (
  (  0.000,  0.000) ( -0.000,  0.000) (  0.000,  0.000) ( -0.000, -0.000) (  0.060,  0.000) (  0.000,  0.000) ( -0.000,  0.000) (  0.306, -0.000) ( -0.000, -0.000) (  0.000, -0.000) ( -0.000, -0.000) (  0.010,  0.000) (  0.000,  0.000) (  0.000, -0.000) (
  ( -0.000,  0.000) (  0.011, -0.000) ( -0.000, -0.000) (  0.000,  0.000) (  0.000,  0.000) ( -0.052, -0.000) (  0.000,  0.000) ( -0.000,  0.000) (  0.317, -0.000) (  0.000, -0.000) (  0.000,  0.000) (  0.000,  0.000) (  0.010, -0.000) (  0.000, -0.000) (
  (  0.000, -0.000) ( -0.000,  0.000) ( -0.032, -0.000) ( -0.000, -0.000) (  0.000, -0.000) (  0.000,  0.000) (  0.000, -0.000) (  0.000,  0.000) (  0.000,  0.000) (  0.308, -0.000) ( -0.000,  0.000) (  0.000,  0.000) (  0.000,  0.000) ( -0.013,  0.000) (
  (  0.000, -0.000) (  0.000, -0.000) ( -0.000,  0.000) (  0.032,  0.000) ( -0.000, -0.000) (  0.000,  0.000) ( -0.013,  0.000) ( -0.000,  0.000) (  0.000, -0.000) ( -0.000, -0.000) (  0.308, -0.000) ( -0.000,  0.000) (  0.000,  0.000) ( -0.000, -0.000) (
  (  0.052,  0.000) (  0.000, -0.000) (  0.000,  0.000) ( -0.000,  0.000) ( -0.011,  0.000) ( -0.000, -0.000) ( -0.000, -0.000) (  0.010, -0.000) (  0.000, -0.000) (  0.000, -0.000) ( -0.000, -0.000) (  0.317, -0.000) (  0.000,  0.000) (  0.000,  0.000) (
  (  0.000, -0.000) ( -0.060, -0.000) ( -0.000,  0.000) (  0.000, -0.000) ( -0.000, -0.000) ( -0.000, -0.000) (  0.000,  0.000) (  0.000, -0.000) (  0.010,  0.000) (  0.000, -0.000) (  0.000, -0.000) (  0.000, -0.000) (  0.306, -0.000) (  0.000,  0.000) (
  (  0.000, -0.000) (  0.000,  0.000) (  0.038,  0.000) ( -0.000,  0.000) (  0.000,  0.000) ( -0.000, -0.000) ( -0.000, -0.000) ( -0.000,  0.000) (  0.000,  0.000) ( -0.013, -0.000) ( -0.000,  0.000) (  0.000, -0.000) (  0.000, -0.000) (  0.312, -0.000) (
 
 
 
================================================================================
 
 ----iterations are completed or convergence reached----
 
 Mean square residual over all n,k,spin=   26.261E-11; max=  10.319E-10
  -0.2500  0.5000  0.0000    1  7.33871E-10 kpt; spin; max resid(k); each band:
  1.85E-12 2.09E-12 2.67E-12 2.88E-12 2.16E-12 2.15E-12 5.21E-12 4.81E-12
  6.16E-10 6.14E-10 4.17E-10 3.80E-10 3.73E-11 3.76E-11 2.87E-10 2.82E-10
  1.48E-10 1.36E-10 3.45E-11 3.45E-11 2.02E-11 2.03E-11 9.25E-11 9.23E-11
  7.34E-10 7.22E-10 4.50E-10 4.80E-10 3.84E-10 3.69E-10 2.65E-11 2.64E-11
  4.05E-10 4.16E-10 1.95E-10 2.44E-10 5.38E-10 5.46E-10 6.76E-10 7.10E-10
  5.89E-10 2.52E-10
  -0.2500  0.0000  0.0000    1  1.03190E-09 kpt; spin; max resid(k); each band:
  1.75E-12 1.97E-12 7.86E-13 7.86E-13 5.09E-13 5.09E-13 7.32E-13 7.42E-13
  4.91E-10 7.52E-10 1.97E-10 1.64E-10 6.90E-11 6.91E-11 2.04E-10 1.81E-10
  1.68E-10 1.82E-10 2.46E-10 2.49E-10 6.42E-11 6.41E-11 3.53E-12 3.53E-12
  3.89E-10 3.31E-10 3.79E-10 3.74E-10 3.82E-10 3.99E-10 3.82E-10 3.51E-10
  3.22E-10 3.83E-10 1.03E-09 7.62E-10 7.51E-10 6.90E-10 3.98E-10 1.41E-10
  1.64E-10 2.81E-10
 reduced coordinates (array xred) for    1 atoms
       0.000000000000      0.000000000000      0.000000000000
 rms dE/dt=  1.8218E-30; max dE/dt=  3.1554E-30; dE/dt below (all hartree)
    1       0.000000000000      0.000000000000      0.000000000000
 
 cartesian coordinates (angstrom) at end:
    1      0.00000000000000     0.00000000000000     0.00000000000000
 
 cartesian forces (hartree/bohr) at end:
    1      0.00000000000000     0.00000000000000     0.00000000000000
 frms,max,avg= 0.0000000E+00 0.0000000E+00   0.000E+00  0.000E+00  0.000E+00 h/b
 
 cartesian forces (eV/Angstrom) at end:
    1      0.00000000000000     0.00000000000000     0.00000000000000
 frms,max,avg= 0.0000000E+00 0.0000000E+00   0.000E+00  0.000E+00  0.000E+00 e/A
 length scales=  7.400000000000  7.400000000000  7.400000000000 bohr
              =  3.915911358026  3.915911358026  3.915911358026 angstroms
 prteigrs : about to open file t48o_DS1_EIG
 Fermi (or HOMO) energy (hartree) =   0.57198   Average Vxc (hartree)=  -0.54817
 Eigenvalues (hartree) for nkpt=   2  k points:
 kpt#   1, nband= 42, wtk=  0.75000, kpt= -0.2500  0.5000  0.0000 (reduced coord)
  -0.96354   -0.96354   -0.30776   -0.30776   -0.17593   -0.17593   -0.10283   -0.10283
   0.47049    0.47049    0.53741    0.53741    0.55194    0.55194    0.55586    0.55586
   0.56728    0.56728    0.57977    0.57977    0.58642    0.58642    0.58726    0.58726
   0.62583    0.62583    0.77639    0.77639    0.81691    0.81691    1.07464    1.07464
   1.14429    1.14429    1.29483    1.29483    1.33950    1.33950    1.45637    1.45637
   1.66180    1.66180
      occupation numbers for kpt#   1
   1.00000    1.00000    1.00000    1.00000    1.00000    1.00000    1.00000    1.00000
   1.00000    1.00000    0.99289    0.99289    0.94601    0.94601    0.90914    0.90914
   0.66179    0.66179    0.24735    0.24735    0.11283    0.11283    0.10135    0.10135
   0.00046    0.00046    0.00000    0.00000    0.00000    0.00000    0.00000    0.00000
   0.00000    0.00000    0.00000    0.00000    0.00000    0.00000    0.00000    0.00000
   0.00000    0.00000
 kpt#   2, nband= 42, wtk=  0.25000, kpt= -0.2500  0.0000  0.0000 (reduced coord)
  -0.99883   -0.99883   -0.25041   -0.25041   -0.10325   -0.10325   -0.03589   -0.03589
   0.49562    0.49562    0.53782    0.53782    0.54697    0.54697    0.55930    0.55930
   0.56786    0.56786    0.57770    0.57770    0.57885    0.57885    0.59472    0.59472
   0.70206    0.70206    0.71164    0.71164    0.73114    0.73114    0.88257    0.88257
   0.88963    0.88963    1.12427    1.12427    1.35754    1.35754    1.54245    1.54245
   1.54336    1.54336
      occupation numbers for kpt#   2
   1.00000    1.00000    1.00000    1.00000    1.00000    1.00000    1.00000    1.00000
   0.99998    0.99998    0.99247    0.99247    0.97270    0.97270    0.85954    0.85954
   0.64330    0.64330    0.30645    0.30645    0.27269    0.27269    0.03739    0.03739
   0.00000    0.00000    0.00000    0.00000    0.00000    0.00000    0.00000    0.00000
   0.00000    0.00000    0.00000    0.00000    0.00000    0.00000    0.00000    0.00000
   0.00000    0.00000
 Total charge density [el/Bohr^3]
)     Maximum=    1.0366E+00  at reduced coord.    0.0000    0.0000    0.0000
)Next maximum=    1.0300E+00  at reduced coord.    0.0000    0.0333    0.9667
)     Minimum=    2.9397E-02  at reduced coord.    0.5000    0.5000    0.5000
)Next minimum=    2.9529E-02  at reduced coord.    0.5000    0.5000    0.4667
   Integrated=    1.8000E+01
 x component of magnetization [el/Bohr^3]
)     Maximum=    0.0000E+00  at reduced coord.    0.9667    0.9667    0.9667
)Next maximum=    0.0000E+00  at reduced coord.    0.9333    0.9667    0.9667
)     Minimum=    0.0000E+00  at reduced coord.    0.0000    0.0000    0.0000
)Next minimum=    0.0000E+00  at reduced coord.    0.0333    0.0000    0.0000
   Integrated=    0.0000E+00
 y component of magnetization [el/Bohr^3]
)     Maximum=    0.0000E+00  at reduced coord.    0.9667    0.9667    0.9667
)Next maximum=    0.0000E+00  at reduced coord.    0.9333    0.9667    0.9667
)     Minimum=    0.0000E+00  at reduced coord.    0.0000    0.0000    0.0000
)Next minimum=    0.0000E+00  at reduced coord.    0.0333    0.0000    0.0000
   Integrated=    0.0000E+00
 z component of magnetization [el/Bohr^3]
)     Maximum=    0.0000E+00  at reduced coord.    0.9667    0.9667    0.9667
)Next maximum=    0.0000E+00  at reduced coord.    0.9333    0.9667    0.9667
)     Minimum=    0.0000E+00  at reduced coord.    0.0000    0.0000    0.0000
)Next minimum=    0.0000E+00  at reduced coord.    0.0333    0.0000    0.0000
   Integrated=    0.0000E+00
 Magnetization (absolute value) [el/Bohr^3]
)     Maximum=    0.0000E+00  at reduced coord.    0.9667    0.9667    0.9667
)Next maximum=    0.0000E+00  at reduced coord.    0.9333    0.9667    0.9667
)     Minimum=    0.0000E+00  at reduced coord.    0.0000    0.0000    0.0000
)Next minimum=    0.0000E+00  at reduced coord.    0.0333    0.0000    0.0000
   Integrated=    0.0000E+00
 Relative magnetization (=zeta, between -1 and 1)
)     Maximum=    1.2690E-07  at reduced coord.    0.4000    0.4333    0.7667
)Next maximum=    1.2690E-07  at reduced coord.    0.4333    0.4000    0.7667
)     Minimum=    0.0000E+00  at reduced coord.    0.0000    0.0000    0.0000
)Next minimum=    0.0000E+00  at reduced coord.    0.0333    0.0000    0.0000

--- !EnergyTerms
[...]
    1       0.000000000000      0.000000000000      0.000000000000
 
 cartesian coordinates (angstrom) at end:
    1      0.00000000000000     0.00000000000000     0.00000000000000
 length scales=  7.400000000000  7.400000000000  7.400000000000 bohr
              =  3.915911358026  3.915911358026  3.915911358026 angstroms
 prteigrs : about to open file t48o_DS2_EIG
 Fermi (or HOMO) energy (hartree) =   0.57197   Average Vxc (hartree)=  -0.54817
 Eigenvalues (hartree) for nkpt=   2  k points:
 kpt#   1, nband= 42, wtk=  0.75000, kpt= -0.2500  0.5000  0.0000 (reduced coord)
  -0.96354   -0.96354   -0.30776   -0.30776   -0.17593   -0.17593   -0.10284   -0.10284
   0.47048    0.47048    0.53740    0.53740    0.55193    0.55193    0.55585    0.55585
   0.56727    0.56727    0.57976    0.57976    0.58641    0.58641    0.58725    0.58725
   0.62582    0.62582    0.77638    0.77638    0.81690    0.81690    1.07464    1.07464
   1.14429    1.14429    1.29483    1.29483    1.33950    1.33950    1.45637    1.45637
   1.66179    1.66179
      occupation numbers for kpt#   1
   1.00000    1.00000    1.00000    1.00000    1.00000    1.00000    1.00000    1.00000
   0.98397    0.98397    0.89520    0.89520    0.85695    0.85695    0.85664    0.85664
   0.58206    0.58206    0.23368    0.23368    0.15936    0.15936    0.24279    0.24279
   0.39724    0.39724    0.00274    0.00274    0.00213    0.00213    0.00007    0.00007
   0.00026    0.00026    0.00012    0.00012    0.00019    0.00019    0.00013    0.00013
   0.00000    0.00000
 kpt#   2, nband= 42, wtk=  0.25000, kpt= -0.2500  0.0000  0.0000 (reduced coord)
  -0.99884   -0.99884   -0.25042   -0.25042   -0.10325   -0.10325   -0.03589   -0.03589
   0.49562    0.49562    0.53781    0.53781    0.54696    0.54696    0.55929    0.55929
   0.56784    0.56784    0.57769    0.57769    0.57884    0.57884    0.59471    0.59471
   0.70206    0.70206    0.71164    0.71164    0.73113    0.73113    0.88257    0.88257
   0.88963    0.88963    1.12427    1.12427    1.35754    1.35754    1.54245    1.54245
   1.54335    1.54335
      occupation numbers for kpt#   2
   1.00000    1.00000    1.00000    1.00000    1.00000    1.00000    1.00000    1.00000
   0.95321    0.95321    0.82431    0.82431    0.92734    0.92734    0.87561    0.87561
   0.22486    0.22486    0.19073    0.19073    0.14004    0.14004    0.20563    0.20563
   0.00482    0.00482    0.00436    0.00436    0.00541    0.00541    0.00090    0.00090
   0.00125    0.00125    0.00071    0.00071    0.00019    0.00019    0.00009    0.00009
   0.00000    0.00000
 Total charge density [el/Bohr^3]
)     Maximum=    9.8959E-01  at reduced coord.    0.0000    0.0000    0.0000
)Next maximum=    9.8393E-01  at reduced coord.    0.0000    0.0333    0.9667
)     Minimum=    3.8734E-02  at reduced coord.    0.5000    0.5000    0.5000
)Next minimum=    3.8814E-02  at reduced coord.    0.5000    0.5000    0.4667
   Integrated=    1.8000E+01
 x component of magnetization [el/Bohr^3]
)     Maximum=    0.0000E+00  at reduced coord.    0.9667    0.9667    0.9667
)Next maximum=    0.0000E+00  at reduced coord.    0.9333    0.9667    0.9667
)     Minimum=    0.0000E+00  at reduced coord.    0.0000    0.0000    0.0000
)Next minimum=    0.0000E+00  at reduced coord.    0.0333    0.0000    0.0000
   Integrated=    0.0000E+00
 y component of magnetization [el/Bohr^3]
)     Maximum=    0.0000E+00  at reduced coord.    0.9667    0.9667    0.9667
)Next maximum=    0.0000E+00  at reduced coord.    0.9333    0.9667    0.9667
)     Minimum=    0.0000E+00  at reduced coord.    0.0000    0.0000    0.0000
)Next minimum=    0.0000E+00  at reduced coord.    0.0333    0.0000    0.0000
   Integrated=    0.0000E+00
 z component of magnetization [el/Bohr^3]
)     Maximum=    0.0000E+00  at reduced coord.    0.9667    0.9667    0.9667
)Next maximum=    0.0000E+00  at reduced coord.    0.9333    0.9667    0.9667
)     Minimum=    0.0000E+00  at reduced coord.    0.0000    0.0000    0.0000
)Next minimum=    0.0000E+00  at reduced coord.    0.0333    0.0000    0.0000
   Integrated=    0.0000E+00
 Magnetization (absolute value) [el/Bohr^3]
)     Maximum=    0.0000E+00  at reduced coord.    0.9667    0.9667    0.9667
)Next maximum=    0.0000E+00  at reduced coord.    0.9333    0.9667    0.9667
)     Minimum=    0.0000E+00  at reduced coord.    0.0000    0.0000    0.0000
)Next minimum=    0.0000E+00  at reduced coord.    0.0333    0.0000    0.0000
   Integrated=    0.0000E+00
 Relative magnetization (=zeta, between -1 and 1)
)     Maximum=    0.0000E+00  at reduced coord.    0.9667    0.9667    0.9667
)Next maximum=    0.0000E+00  at reduced coord.    0.9333    0.9667    0.9667
)     Minimum=    0.0000E+00  at reduced coord.    0.0000    0.0000    0.0000
)Next minimum=    0.0000E+00  at reduced coord.    0.0333    0.0000    0.0000

--- !EnergyTerms
iteration_state     : {dtset: 2, }
comment             : Components of total energy in Hartree
kinetic             :  1.16084166700364E+01
hartree             :  1.25541118770133E+01
xc                  : -1.05631360798217E+01
Ewald energy        : -1.00371304865735E+02
psp_core            :  1.00040676772558E+01
local_psp           : -4.17230040700728E+01
PAW spherical_terms :  6.24830253800626E+00
interaction         :  4.62084895952982E+00
'-double_counting'  : -4.62072256523852E+00
internal            : -1.12242419859026E+02
total_energy        : -1.12242419859026E+02
total_energy_eV     : -3.05427183996754E+03
...


--- !EnergyTermsDC
iteration_state     : {dtset: 2, }
comment             : '"Double-counting" decomposition of internal energy'
band_energy         :  2.43681781787212E+00
Ewald energy        : -1.00371304865735E+02
psp_core            :  1.00040676772558E+01
xc_dc               : -9.26853647667153E+00
PAW spherical_terms : -1.53616141233417E+01
interaction         :  4.62084895952982E+00
'-double_counting'  : -4.62072256523852E+00
internal            : -1.12560443576329E+02
total_energy_dc     : -1.12560443576329E+02
total_energy_dc_eV  : -3.06292570617444E+03
...

 
 Cartesian components of stress tensor (hartree/bohr^3)
  sigma(1 1)= -2.90896166E-03  sigma(3 2)=  0.00000000E+00
  sigma(2 2)= -2.90896166E-03  sigma(3 1)=  0.00000000E+00
  sigma(3 3)= -2.90896166E-03  sigma(2 1)=  0.00000000E+00
 
-Cartesian components of stress tensor (GPa)         [Pressure=  8.5585E+01 GPa]
- sigma(1 1)= -8.55846068E+01  sigma(3 2)=  0.00000000E+00
- sigma(2 2)= -8.55846068E+01  sigma(3 1)=  0.00000000E+00
- sigma(3 3)= -8.55846068E+01  sigma(2 1)=  0.00000000E+00
 
== END DATASET(S) ==============================================================
================================================================================
  
 -outvars: echo values of variables after computation  --------
            acell      7.4000000000E+00  7.4000000000E+00  7.4000000000E+00 Bohr
              amu      1.57250000E+02
        dmatpuopt           1
        dmftbandf1          0
        dmftbandf2         40
        dmftbandi1          0
        dmftbandi2          9
        dmft_iter1         10
        dmft_iter2          2
        dmft_mxsf1     6.0000000000E-01
        dmft_mxsf2     7.0000000000E-01
        dmft_nwli1          0
        dmft_nwli2     200000
        dmft_nwlo1          0
        dmft_nwlo2        100
        dmft_solv1          5
        dmft_solv2          2
             ecut      1.20000000E+01 Hartree
           etotal1    -1.1265463142E+02
           etotal2    -1.1256044358E+02
            fcart1     0.0000000000E+00  0.0000000000E+00  0.0000000000E+00
            fcart2     9.9999999999E+99  9.9999999999E+99  9.9999999999E+99
-          fftalg         112
        f4of2_sla      0.00000000E+00
        f6of2_sla      0.00000000E+00
           getwfk          -1
-      gpu_option           2
-gpu_thread_limit           1
-invovl_blksliced           0
              ixc           7
           jdtset        1    2
              kpt     -2.50000000E-01  5.00000000E-01  0.00000000E+00
                      -2.50000000E-01  0.00000000E+00  0.00000000E+00
           kptopt           4
         kptrlatt        2   -2    2     -2    2    2     -2   -2    2
          kptrlen      1.48000000E+01
            lpawu           3
P           mkmem           2
            natom           1
            nband          42
           ndtset           2
            ngfft          18      18      18
          ngfftdg          30      30      30
             nkpt           2
           nspden           4
          nspinor           2
            nstep1         30
            nstep2          1
             nsym          24
           ntypat           1
              occ1     1.000000  1.000000  1.000000  1.000000  1.000000  1.000000
                       1.000000  1.000000  0.999999  0.999999  0.992893  0.992893
                       0.946012  0.946012  0.909137  0.909137  0.661792  0.661792
                       0.247348  0.247348  0.112833  0.112833  0.101352  0.101352
                       0.000456  0.000456  0.000000  0.000000  0.000000  0.000000
                       0.000000  0.000000  0.000000  0.000000  0.000000  0.000000
                       0.000000  0.000000  0.000000  0.000000  0.000000  0.000000
                       1.000000  1.000000  1.000000  1.000000  1.000000  1.000000
                       1.000000  1.000000  0.999982  0.999982  0.992466  0.992466
                       0.972699  0.972699  0.859544  0.859544  0.643304  0.643304
                       0.306448  0.306448  0.272691  0.272691  0.037394  0.037394
                       0.000000  0.000000  0.000000  0.000000  0.000000  0.000000
                       0.000000  0.000000  0.000000  0.000000  0.000000  0.000000
                       0.000000  0.000000  0.000000  0.000000  0.000000  0.000000
              occ2     1.000000  1.000000  1.000000  1.000000  1.000000  1.000000
                       1.000000  1.000000  0.983970  0.983970  0.895196  0.895196
                       0.856955  0.856955  0.856640  0.856640  0.582061  0.582061
                       0.233676  0.233676  0.159362  0.159362  0.242792  0.242792
                       0.397242  0.397242  0.002737  0.002737  0.002133  0.002133
                       0.000068  0.000068  0.000257  0.000257  0.000116  0.000116
                       0.000189  0.000189  0.000130  0.000130  0.000000  0.000000
                       1.000000  1.000000  1.000000  1.000000  1.000000  1.000000
                       1.000000  1.000000  0.953205  0.953205  0.824312  0.824312
                       0.927339  0.927339  0.875615  0.875615  0.224857  0.224857
                       0.190727  0.190727  0.140040  0.140040  0.205625  0.205625
                       0.004820  0.004820  0.004356  0.004356  0.005406  0.005406
                       0.000899  0.000899  0.001249  0.001249  0.000705  0.000705
                       0.000187  0.000187  0.000090  0.000090  0.000000  0.000000
           occopt           3
        optforces1          2
        optforces2          0
        pawcpxocc           2
        pawecutdg      4.00000000E+01 Hartree
        pawprtvol           3
        pawspnorb           1
           prtvol           4
            rprim      0.0000000000E+00  5.0000000000E-01  5.0000000000E-01
                       5.0000000000E-01  0.0000000000E+00  5.0000000000E-01
                       5.0000000000E-01  5.0000000000E-01  0.0000000000E+00
           shiftk      5.00000000E-01  5.00000000E-01  5.00000000E-01
          spgroup         209
           strten1    -1.4643243441E-03 -1.4643243441E-03 -1.4643243441E-03
                       0.0000000000E+00  0.0000000000E+00  0.0000000000E+00
           strten2    -2.9089616578E-03 -2.9089616578E-03 -2.9089616578E-03
                       0.0000000000E+00  0.0000000000E+00  0.0000000000E+00
           symrel      1  0  0   0  1  0   0  0  1       0 -1  1   0 -1  0   1 -1  0
                      -1  0  0  -1  0  1  -1  1  0       0  1 -1   1  0 -1   0  0 -1
                       1  0  0   1 -1  0   1  0 -1       0  1 -1  -1  1  0   0  1  0
                      -1  0  0   0  0 -1   0 -1  0       0 -1  1   0  0  1  -1  0  1
                      -1  0  1  -1  1  0  -1  0  0       0 -1  0   1 -1  0   0 -1  1
                       1  0 -1   0  0 -1   0  1 -1       0  1  0   0  0  1   1  0  0
                      -1  0  1   0 -1  1   0  0  1       0  1  0   0  1 -1  -1  1  0
                       1  0 -1   1  0  0   1 -1  0       0 -1  0  -1  0  0   0  0 -1
                       0  0 -1   0  1 -1   1  0 -1       1 -1  0   0 -1  1   0 -1  0
                       0  0  1   1  0  0   0  1  0      -1  1  0  -1  0  0  -1  0  1
                       0  0 -1   0 -1  0  -1  0  0      -1  1  0   0  1  0   0  1 -1
                       0  0  1  -1  0  1   0 -1  1       1 -1  0   1  0 -1   1  0  0
           tolvrs      1.00000000E-08
           tsmear      7.00000000E-03 Hartree
            typat      1
            upawu1     0.00000000E+00 Hartree
            upawu2     2.20000000E-01 Hartree
          usedmft1          0
          usedmft2          1
          usepawu1          1
          usepawu2         10
-          useylm           1
              wtk        0.75000    0.25000
            znucl       64.00000
 
================================================================================


- Timing analysis has been suppressed with timopt=0



================================================================================

 Suggested references for the acknowledgment of ABINIT usage.

 The users of ABINIT have little formal obligations with respect to the ABINIT group
 (those specified in the GNU General Public License, http://www.gnu.org/copyleft/gpl.txt).
 However, it is common practice in the scientific literature,
 to acknowledge the efforts of people that have made the research possible.
 In this spirit, please find below suggested citations of work written by ABINIT developers,
 corresponding to implementations inside of ABINIT that you have used in the present run.
 Note also that it will be of great value to readers of publications presenting these results,
 to read papers enabling them to understand the theoretical formalism and details
 of the ABINIT implementation.
 For information on why they are suggested, see also https://docs.abinit.org/theory/acknowledgments.
-
- [1] Specification of an extensible and portable file format for electronic structure and crystallographic data
- X. Gonze, C.-O. Almbladh, A. Cucca, D. Caliste, C. Freysoldt, M. Marques, V. Olevano, Y. Pouillon, M.J. Verstraete,
- Comput. Material Science 43, 1056 (2008).
- Comment: to be cited in case the ETSF_IO file format is used, i.e. iomode=3.
- DOI and bibtex: see https://docs.abinit.org/theory/bibliography/#gonze2008
-
- [2] A self-consistent DFT + DMFT scheme in the projector augmented wave method: 
- applications to cerium, Ce2O3 and Pu2O3 with the Hubbard I solver and comparison to DFT + U,
- B. Amadon,  J. Phys.: Condens. Matter 24 075604 (2012).
- Comment : Describes the self-consistent implementation of DFT+DMFT in PAW
- DOI and bibtex: see https://docs.abinit.org/theory/bibliography/#amadon2012
-
- [3] Plane-wave based electronic structure calculations for correlated materials.
- using dynamical mean-field theory and projected local orbitals,
- B. Amadon, F. Lechermann, A. Georges, F. Jollet, T.O. Wehling, A.I. Lichenstein,
- Phys. Rev. B 77, 205112 (2008).
- Comment: to be cited in case the computation of overlap operator for Wannier90 interface within PAW is used,
- i.e. prtwant=2 and usepaw=1. The paper describes also the DFT+DMFT implementation on Wannier functions
- DOI and bibtex: see https://docs.abinit.org/theory/bibliography/#amadon2008
-
- [4] Gamma and beta cerium: DFT+U calculations of ground-state parameters.
- B. Amadon, F. Jollet and M. Torrent, Phys. Rev. B 77, 155104 (2008).
- Comment: DFT+U calculations, usepawu/=0. Strong suggestion to cite this paper.
- DOI and bibtex: see https://docs.abinit.org/theory/bibliography/#amadon2008a
-
- [5] Implementation of the Projector Augmented-Wave Method in the ABINIT code.
- M. Torrent, F. Jollet, F. Bottin, G. Zerah, and X. Gonze Comput. Mat. Science 42, 337, (2008).
- Comment: PAW calculations. Strong suggestion to cite this paper.
- DOI and bibtex: see https://docs.abinit.org/theory/bibliography/#torrent2008
-
- [6] The Abinit project: Impact, environment and recent developments.
- Computer Phys. Comm. 248, 107042 (2020).
- X.Gonze, B. Amadon, G. Antonius, F.Arnardi, L.Baguet, J.-M.Beuken,
- J.Bieder, F.Bottin, J.Bouchet, E.Bousquet, N.Brouwer, F.Bruneval,
- G.Brunin, T.Cavignac, J.-B. Charraud, Wei Chen, M.Cote, S.Cottenier,
- J.Denier, G.Geneste, Ph.Ghosez, M.Giantomassi, Y.Gillet, O.Gingras,
- D.R.Hamann, G.Hautier, Xu He, N.Helbig, N.Holzwarth, Y.Jia, F.Jollet,
- W.Lafargue-Dit-Hauret, K.Lejaeghere, M.A.L.Marques, A.Martin, C.Martins,
- H.P.C. Miranda, F.Naccarato, K. Persson, G.Petretto, V.Planes, Y.Pouillon,
- S.Prokhorenko, F.Ricci, G.-M.Rignanese, A.H.Romero, M.M.Schmitt, M.Torrent,
- M.J.van Setten, B.Van Troeye, M.J.Verstraete, G.Zerah and J.W.Zwanzig
- Comment: the fifth generic paper describing the ABINIT project.
- Note that a version of this paper, that is not formatted for Computer Phys. Comm. 
- is available at https://www.abinit.org/sites/default/files/ABINIT20.pdf .
- The licence allows the authors to put it on the Web.
- DOI and bibtex: see https://docs.abinit.org/theory/bibliography/#gonze2020
-
- [7] ABINIT: Overview, and focus on selected capabilities
- J. Chem. Phys. 152, 124102 (2020).
- A. Romero, D.C. Allan, B. Amadon, G. Antonius, T. Applencourt, L.Baguet,
- J.Bieder, F.Bottin, J.Bouchet, E.Bousquet, F.Bruneval,
- G.Brunin, D.Caliste, M.Cote,
- J.Denier, C. Dreyer, Ph.Ghosez, M.Giantomassi, Y.Gillet, O.Gingras,
- D.R.Hamann, G.Hautier, F.Jollet, G. Jomard,
- A.Martin, 
- H.P.C. Miranda, F.Naccarato, G.Petretto, N.A. Pike, V.Planes,
- S.Prokhorenko, T. Rangel, F.Ricci, G.-M.Rignanese, M.Royo, M.Stengel, M.Torrent,
- M.J.van Setten, B.Van Troeye, M.J.Verstraete, J.Wiktor, J.W.Zwanziger, and X.Gonze.
- Comment: a global overview of ABINIT, with focus on selected capabilities .
- Note that a version of this paper, that is not formatted for J. Chem. Phys 
- is available at https://www.abinit.org/sites/default/files/ABINIT20_JPC.pdf .
- The licence allows the authors to put it on the Web.
- DOI and bibtex: see https://docs.abinit.org/theory/bibliography/#romero2020
-
- [8] Recent developments in the ABINIT software package.
- Computer Phys. Comm. 205, 106 (2016).
- X.Gonze, F.Jollet, F.Abreu Araujo, D.Adams, B.Amadon, T.Applencourt,
- C.Audouze, J.-M.Beuken, J.Bieder, A.Bokhanchuk, E.Bousquet, F.Bruneval
- D.Caliste, M.Cote, F.Dahm, F.Da Pieve, M.Delaveau, M.Di Gennaro,
- B.Dorado, C.Espejo, G.Geneste, L.Genovese, A.Gerossier, M.Giantomassi,
- Y.Gillet, D.R.Hamann, L.He, G.Jomard, J.Laflamme Janssen, S.Le Roux,
- A.Levitt, A.Lherbier, F.Liu, I.Lukacevic, A.Martin, C.Martins,
- M.J.T.Oliveira, S.Ponce, Y.Pouillon, T.Rangel, G.-M.Rignanese,
- A.H.Romero, B.Rousseau, O.Rubel, A.A.Shukri, M.Stankovski, M.Torrent,
- M.J.Van Setten, B.Van Troeye, M.J.Verstraete, D.Waroquier, J.Wiktor,
- B.Xu, A.Zhou, J.W.Zwanziger.
- Comment: the fourth generic paper describing the ABINIT project.
- Note that a version of this paper, that is not formatted for Computer Phys. Comm. 
- is available at https://www.abinit.org/sites/default/files/ABINIT16.pdf .
- The licence allows the authors to put it on the Web.
- DOI and bibtex: see https://docs.abinit.org/theory/bibliography/#gonze2016
-
- Proc.   0 individual time (sec): cpu=         13.5  wall=         13.5
 
================================================================================
 
 Calculation completed.
.Delivered  10 WARNINGs and  18 COMMENTs to log file.
+Overall time at end (sec) : cpu=         13.5  wall=         13.5
