# YAML support is available, but is disabled for this test.
# Start legacy fldiff comparison report
2
< .Version 9.7.4 of ABINIT 
> .Version 9.9.0 of ABINIT 
3
< .(MPI version, prepared for a x86_64_linux_gnu9.3 computer) 
> .(MPI version, prepared for a x86_64_linux_gnu11.3 computer) 
17
< .Starting date : Wed  4 May 2022.
> .Starting date : Thu 17 Nov 2022.
648
< .Delivered   6 WARNINGs and  12 COMMENTs to log file.
> .Delivered  16 WARNINGs and  12 COMMENTs to log file.
649
< +Overall time at end (sec) : cpu=          1.0  wall=          1.5
> +Overall time at end (sec) : cpu=          0.4  wall=          0.5
Summary t08.abo: no significant difference has been found.
