  ABINIT 8.11.8
  
  Give name for formatted input file: 
t03.in
  Give name for formatted output file:
t03_x.out
  Give root name for generic input files:
t03_xi
  Give root name for generic output files:
t03_xo
  Give root name for generic temporary files:
t03_x
 
--- !COMMENT
src_file: m_dtfil.F90
src_line: 1082
message: |
    Output file: t03_x.out already exists.
...
 
 
--- !COMMENT
src_file: m_dtfil.F90
src_line: 1106
message: |
    Renaming old t03_x.out to t03_x.out0020
...
 

.Version 8.11.8 of ABINIT 
.(MPI version, prepared for a x86_64_linux_intel19.0 computer) 

.Copyright (C) 1998-2019 ABINIT group . 
 ABINIT comes with ABSOLUTELY NO WARRANTY.
 It is free software, and you are welcome to redistribute it
 under certain conditions (GNU General Public License,
 see ~abinit/COPYING or http://www.gnu.org/copyleft/gpl.txt).

 ABINIT is a project of the Universite Catholique de Louvain,
 Corning Inc. and other collaborators, see ~abinit/doc/developers/contributors.txt .
 Please read https://docs.abinit.org/theory/acknowledgments for suggested
 acknowledgments of the ABINIT effort.
 For more information, see https://www.abinit.org .

.Starting date : Fri 21 Jun 2019.
- ( at 14h07 )
  
 
 ++++++++++++++++++++++++++++++++++++++++++++++++++++++++++++++++++++++++++++++
 
 === Build Information === 
  Version       : 8.11.8
  Build target  : x86_64_linux_intel19.0
  Build date    : 20190620
 
 === Compiler Suite === 
  C compiler       : gnu7.4
  C++ compiler     : gnu7.4
  Fortran compiler : intel19.0
  CFLAGS           :  -g -O2 -mtune=native -march=native
  CXXFLAGS         :  -g -O2 -mtune=native -march=native
  FCFLAGS          : -O2 -qopenmp -heap-arrays 1000000
  FC_LDFLAGS       :    -static-intel -static-libgcc
 
 === Optimizations === 
  Debug level        : basic
  Optimization level : standard
  Architecture       : intel_core_i3
 
 === Multicore === 
  Parallel build : yes
  Parallel I/O   : auto
  openMP support : yes
  GPU support    : no
 
 === Connectors / Fallbacks === 
  Connectors on : yes
  Fallbacks on  : yes
  DFT flavor    : none
  FFT flavor    : fftw3
  LINALG flavor : mkl
  TIMER flavor  : abinit
  TRIO flavor   : none
 
 === Experimental features === 
  Exports             : no
  GW double-precision : no
 
 ++++++++++++++++++++++++++++++++++++++++++++++++++++++++++++++++++++++++++++++
 

 ++++++++++++++++++++++++++++++++++++++++++++++++++++++++++++++++++++++++++++++
 Default optimizations:
   --- None ---


 ++++++++++++++++++++++++++++++++++++++++++++++++++++++++++++++++++++++++++++++


 ++++++++++++++++++++++++++++++++++++++++++++++++++++++++++++++++++++++++++++++
 CPP options activated during the build:

                    CC_GNU                   CXX_GNU                  FC_INTEL
 
 HAVE_FC_ALLOCATABLE_DT...             HAVE_FC_ASYNC  HAVE_FC_COMMAND_ARGUMENT
 
      HAVE_FC_COMMAND_LINE        HAVE_FC_CONTIGUOUS           HAVE_FC_CPUTIME
 
             HAVE_FC_ETIME              HAVE_FC_EXIT             HAVE_FC_FLUSH
 
             HAVE_FC_GAMMA            HAVE_FC_GETENV            HAVE_FC_GETPID
 
   HAVE_FC_IEEE_EXCEPTIONS             HAVE_FC_IOMSG     HAVE_FC_ISO_C_BINDING
 
  HAVE_FC_ISO_FORTRAN_2008        HAVE_FC_LONG_LINES        HAVE_FC_MOVE_ALLOC
 
           HAVE_FC_PRIVATE         HAVE_FC_PROTECTED         HAVE_FC_STREAM_IO
 
            HAVE_FC_SYSTEM                  HAVE_FFT            HAVE_FFT_FFTW3
 
              HAVE_FFT_MPI           HAVE_FFT_SERIAL        HAVE_LIBPAW_ABINIT
 
      HAVE_LIBTETRA_ABINIT               HAVE_LINALG         HAVE_LINALG_AXPBY
 
        HAVE_LINALG_GEMM3M  HAVE_LINALG_MKL_IMATCOPY   HAVE_LINALG_MKL_OMATADD
 
  HAVE_LINALG_MKL_OMATCOPY   HAVE_LINALG_MKL_THREADS           HAVE_LINALG_MPI
 
        HAVE_LINALG_SERIAL                  HAVE_MPI                 HAVE_MPI2
 
       HAVE_MPI_IALLREDUCE        HAVE_MPI_IALLTOALL       HAVE_MPI_IALLTOALLV
 
           HAVE_MPI_IBCAST         HAVE_MPI_IGATHERV        HAVE_MPI_INTEGER16
 
               HAVE_MPI_IO HAVE_MPI_TYPE_CREATE_S...                HAVE_NUMPY
 
         HAVE_OMP_COLLAPSE               HAVE_OPENMP             HAVE_OS_LINUX
 
         HAVE_TIMER_ABINIT              USE_MACROAVE                            
 ++++++++++++++++++++++++++++++++++++++++++++++++++++++++++++++++++++++++++++++

- input  file    -> t03.in
- output file    -> t03_x.out
- root for input  files -> t03_xi
- root for output files -> t03_xo
 
-instrng: 111 lines of input have been read from file t03.in
 

 Please give name of formatted atomic psp file
 For atom type 1, psp file is ../../../Psps_for_tests/ba.hpc.paw.xml
- inpspheads : Reading pseudopotential header in XML form from ../../../Psps_for_tests/ba.hpc.paw.xml
 
 inpspheads: deduce mpsang = 3, n1xccc = 1.
 
 symlatt: the Bravais lattice is cP (primitive cubic)
  xred   is defined in input file
 ingeo: takes atomic coordinates from input array xred
 
 symlatt: the Bravais lattice is cP (primitive cubic)
 
 symlatt: the Bravais lattice is cP (primitive cubic)
 symspgr: spgroup= 221  Pm -3 m   (=Oh^1)
 symspgr: optical characteristics = isotropic
 inkpts: Sum of 1 k point weights is    1.000000
 inkpts: Sum of 1 k point weights is    1.000000
 chkneu: initialized the occupation numbers for occopt= 3, spin-unpolarized or antiferromagnetic case:
getng is called for the coarse grid:
 For input ecut=  8.000000E+00 best grid ngfft=      40      40      40
       max ecut=  8.388398E+00
 
 ==== FFT mesh ====
  FFT mesh divisions ........................    40   40   40
  Augmented FFT divisions ...................    41   41   40
  FFT algorithm .............................   312
  FFT cache size ............................    16
 getmpw: optimal value of mpw= 3887
getng is called for the fine grid:
 Using supplied coarse mesh as initial guess.
 For input ecut=  1.000000E+01 best grid ngfft=      45      45      45
       max ecut=  1.014996E+01
 
 ==== FFT mesh ====
  FFT mesh divisions ........................    45   45   45
  Augmented FFT divisions ...................    45   45   45
  FFT algorithm .............................   312
  FFT cache size ............................    16
 
 Symmetries : space group Pm -3 m (#221); Bravais cP (primitive cubic)
 
 getdim_nloc : deduce lmnmax  =  18, lnmax  =   6,
                      lmnmaxso=  18, lnmaxso=   6.
memory: analysis of memory needs
================================================================================
 Values of the parameters that define the memory need of the present run
     intxc =       0    ionmov =       0      iscf =      17    lmnmax =      18
     lnmax =       6     mgfft =      40  mpssoang =       3    mqgrid =    3001
     natom =      31  nloc_mem =       2    nspden =       1   nspinor =       1
    nsppol =       1      nsym =      48    n1xccc =       1    ntypat =       1
    occopt =       3   xclevel =       1
-    mband =         192        mffmem =           1         mkmem =           1
       mpw =        3887          nfft =       64000          nkpt =           1
 PAW method is used; the additional fine FFT grid is defined by:
   mgfftf=        45    nfftf =     91125
================================================================================
P This job should need less than                      83.897 Mbytes of memory.
  Rough estimation (10% accuracy) of disk space for files :
_ WF disk file :     11.390 Mbytes ; DEN or POT disk file :      0.697 Mbytes.
================================================================================
 
 Biggest array : pawfgrtab%gylm(gr), with     21.0009 MBytes.
 memana : allocated an array of     21.001 Mbytes, for testing purposes.
 memana: allocated      83.897Mbytes, for testing purposes. 
 The job will continue.
--------------------------------------------------------------------------------
------------- Echo of variables that govern the present computation ------------
--------------------------------------------------------------------------------
-
- outvars: echo of selected default values                                      
-   iomode0 =  0 , fftalg0 =312 , wfoptalg0 = 10
-
- outvars: echo of global parameters not present in the input file              
-  max_nthreads =    4
-
 -outvars: echo values of preprocessed input variables --------
-          iomode           1
            acell      1.5340000000E+01  1.5340000000E+01  1.5340000000E+01 Bohr
              amu      1.37327000E+02
           bandpp         192
      chksymbreak           0
     densfor_pred           6
             ecut      8.00000000E+00 Hartree
-          fftalg         312
           istwfk        1
              ixc           7
           kptopt           0
P           mkmem           1
            natom          31
            nband         192
            ngfft          40      40      40
          ngfftdg          45      45      45
             nkpt           1
            nstep          40
             nsym          48
           ntypat           1
              occ      2.000000  2.000000  2.000000  2.000000  2.000000  2.000000
                       2.000000  2.000000  2.000000  2.000000  2.000000  2.000000
                       2.000000  2.000000  2.000000  2.000000  2.000000  2.000000
                       2.000000  2.000000  2.000000  2.000000  2.000000  2.000000
                       2.000000  2.000000  2.000000  2.000000  2.000000  2.000000
                       2.000000  2.000000  2.000000  2.000000  2.000000  2.000000
                       2.000000  2.000000  2.000000  2.000000  2.000000  2.000000
                       2.000000  2.000000  2.000000  2.000000  2.000000  2.000000
                       2.000000  2.000000  2.000000  2.000000  2.000000  2.000000
                       2.000000  2.000000  2.000000  2.000000  2.000000  2.000000
                       2.000000  2.000000  2.000000  2.000000  2.000000  2.000000
                       2.000000  2.000000  2.000000  2.000000  2.000000  2.000000
                       2.000000  2.000000  2.000000  2.000000  2.000000  2.000000
                       2.000000  2.000000  2.000000  2.000000  2.000000  2.000000
                       2.000000  2.000000  2.000000  2.000000  2.000000  2.000000
                       2.000000  2.000000  2.000000  2.000000  2.000000  2.000000
                       2.000000  2.000000  2.000000  2.000000  2.000000  2.000000
                       2.000000  2.000000  2.000000  2.000000  2.000000  2.000000
                       2.000000  2.000000  2.000000  2.000000  2.000000  2.000000
                       2.000000  2.000000  2.000000  2.000000  2.000000  2.000000
                       2.000000  2.000000  2.000000  2.000000  2.000000  2.000000
                       2.000000  2.000000  2.000000  2.000000  2.000000  2.000000
                       2.000000  2.000000  2.000000  2.000000  2.000000  2.000000
                       2.000000  2.000000  2.000000  2.000000  2.000000  2.000000
                       2.000000  2.000000  2.000000  2.000000  2.000000  2.000000
                       2.000000  2.000000  2.000000  2.000000  2.000000  0.000000
                       0.000000  0.000000  0.000000  0.000000  0.000000  0.000000
                       0.000000  0.000000  0.000000  0.000000  0.000000  0.000000
                       0.000000  0.000000  0.000000  0.000000  0.000000  0.000000
                       0.000000  0.000000  0.000000  0.000000  0.000000  0.000000
                       0.000000  0.000000  0.000000  0.000000  0.000000  0.000000
                       0.000000  0.000000  0.000000  0.000000  0.000000  0.000000
           occopt           3
        paral_kgb           1
        pawecutdg      1.00000000E+01 Hartree
           prtden           0
           prteig           0
            prtwf           0
          spgroup         221
           symrel      1  0  0   0  1  0   0  0  1      -1  0  0   0 -1  0   0  0 -1
                      -1  0  0   0  1  0   0  0 -1       1  0  0   0 -1  0   0  0  1
                      -1  0  0   0 -1  0   0  0  1       1  0  0   0  1  0   0  0 -1
                       1  0  0   0 -1  0   0  0 -1      -1  0  0   0  1  0   0  0  1
                       0  1  0   1  0  0   0  0  1       0 -1  0  -1  0  0   0  0 -1
                       0 -1  0   1  0  0   0  0 -1       0  1  0  -1  0  0   0  0  1
                       0 -1  0  -1  0  0   0  0  1       0  1  0   1  0  0   0  0 -1
                       0  1  0  -1  0  0   0  0 -1       0 -1  0   1  0  0   0  0  1
                       0  0  1   1  0  0   0  1  0       0  0 -1  -1  0  0   0 -1  0
                       0  0 -1   1  0  0   0 -1  0       0  0  1  -1  0  0   0  1  0
                       0  0 -1  -1  0  0   0  1  0       0  0  1   1  0  0   0 -1  0
                       0  0  1  -1  0  0   0 -1  0       0  0 -1   1  0  0   0  1  0
                       1  0  0   0  0  1   0  1  0      -1  0  0   0  0 -1   0 -1  0
                      -1  0  0   0  0  1   0 -1  0       1  0  0   0  0 -1   0  1  0
                      -1  0  0   0  0 -1   0  1  0       1  0  0   0  0  1   0 -1  0
                       1  0  0   0  0 -1   0 -1  0      -1  0  0   0  0  1   0  1  0
                       0  1  0   0  0  1   1  0  0       0 -1  0   0  0 -1  -1  0  0
                       0 -1  0   0  0  1  -1  0  0       0  1  0   0  0 -1   1  0  0
                       0 -1  0   0  0 -1   1  0  0       0  1  0   0  0  1  -1  0  0
                       0  1  0   0  0 -1  -1  0  0       0 -1  0   0  0  1   1  0  0
                       0  0  1   0  1  0   1  0  0       0  0 -1   0 -1  0  -1  0  0
                       0  0 -1   0  1  0  -1  0  0       0  0  1   0 -1  0   1  0  0
                       0  0 -1   0 -1  0   1  0  0       0  0  1   0  1  0  -1  0  0
                       0  0  1   0 -1  0  -1  0  0       0  0 -1   0  1  0   1  0  0
           timopt          -3
           toldfe      1.00000000E-05 Hartree
           tsmear      2.00000000E-03 Hartree
            typat      1  1  1  1  1  1  1  1  1  1  1  1  1  1  1  1  1  1  1  1
                       1  1  1  1  1  1  1  1  1  1  1
           useylm           1
         wfoptalg         111
           xangst      2.0293945949E+00  2.0293945949E+00  0.0000000000E+00
                       2.0293945949E+00  0.0000000000E+00  2.0293945949E+00
                       0.0000000000E+00  2.0293945949E+00  2.0293945949E+00
                       0.0000000000E+00  0.0000000000E+00  4.0587891899E+00
                       2.0293945949E+00  2.0293945949E+00  4.0587891899E+00
                       2.0293945949E+00  0.0000000000E+00  6.0881837848E+00
                       0.0000000000E+00  2.0293945949E+00  6.0881837848E+00
                       0.0000000000E+00  4.0587891899E+00  0.0000000000E+00
                       2.0293945949E+00  6.0881837848E+00  0.0000000000E+00
                       2.0293945949E+00  4.0587891899E+00  2.0293945949E+00
                       0.0000000000E+00  6.0881837848E+00  2.0293945949E+00
                       0.0000000000E+00  4.0587891899E+00  4.0587891899E+00
                       2.0293945949E+00  6.0881837848E+00  4.0587891899E+00
                       2.0293945949E+00  4.0587891899E+00  6.0881837848E+00
                       0.0000000000E+00  6.0881837848E+00  6.0881837848E+00
                       4.0587891899E+00  0.0000000000E+00  0.0000000000E+00
                       6.0881837848E+00  2.0293945949E+00  0.0000000000E+00
                       6.0881837848E+00  0.0000000000E+00  2.0293945949E+00
                       4.0587891899E+00  2.0293945949E+00  2.0293945949E+00
                       4.0587891899E+00  0.0000000000E+00  4.0587891899E+00
                       6.0881837848E+00  2.0293945949E+00  4.0587891899E+00
                       6.0881837848E+00  0.0000000000E+00  6.0881837848E+00
                       4.0587891899E+00  2.0293945949E+00  6.0881837848E+00
                       4.0587891899E+00  4.0587891899E+00  0.0000000000E+00
                       6.0881837848E+00  6.0881837848E+00  0.0000000000E+00
                       6.0881837848E+00  4.0587891899E+00  2.0293945949E+00
                       4.0587891899E+00  6.0881837848E+00  2.0293945949E+00
                       4.0587891899E+00  4.0587891899E+00  4.0587891899E+00
                       6.0881837848E+00  6.0881837848E+00  4.0587891899E+00
                       6.0881837848E+00  4.0587891899E+00  6.0881837848E+00
                       4.0587891899E+00  6.0881837848E+00  6.0881837848E+00
            xcart      3.8350000000E+00  3.8350000000E+00  0.0000000000E+00
                       3.8350000000E+00  0.0000000000E+00  3.8350000000E+00
                       0.0000000000E+00  3.8350000000E+00  3.8350000000E+00
                       0.0000000000E+00  0.0000000000E+00  7.6700000000E+00
                       3.8350000000E+00  3.8350000000E+00  7.6700000000E+00
                       3.8350000000E+00  0.0000000000E+00  1.1505000000E+01
                       0.0000000000E+00  3.8350000000E+00  1.1505000000E+01
                       0.0000000000E+00  7.6700000000E+00  0.0000000000E+00
                       3.8350000000E+00  1.1505000000E+01  0.0000000000E+00
                       3.8350000000E+00  7.6700000000E+00  3.8350000000E+00
                       0.0000000000E+00  1.1505000000E+01  3.8350000000E+00
                       0.0000000000E+00  7.6700000000E+00  7.6700000000E+00
                       3.8350000000E+00  1.1505000000E+01  7.6700000000E+00
                       3.8350000000E+00  7.6700000000E+00  1.1505000000E+01
                       0.0000000000E+00  1.1505000000E+01  1.1505000000E+01
                       7.6700000000E+00  0.0000000000E+00  0.0000000000E+00
                       1.1505000000E+01  3.8350000000E+00  0.0000000000E+00
                       1.1505000000E+01  0.0000000000E+00  3.8350000000E+00
                       7.6700000000E+00  3.8350000000E+00  3.8350000000E+00
                       7.6700000000E+00  0.0000000000E+00  7.6700000000E+00
                       1.1505000000E+01  3.8350000000E+00  7.6700000000E+00
                       1.1505000000E+01  0.0000000000E+00  1.1505000000E+01
                       7.6700000000E+00  3.8350000000E+00  1.1505000000E+01
                       7.6700000000E+00  7.6700000000E+00  0.0000000000E+00
                       1.1505000000E+01  1.1505000000E+01  0.0000000000E+00
                       1.1505000000E+01  7.6700000000E+00  3.8350000000E+00
                       7.6700000000E+00  1.1505000000E+01  3.8350000000E+00
                       7.6700000000E+00  7.6700000000E+00  7.6700000000E+00
                       1.1505000000E+01  1.1505000000E+01  7.6700000000E+00
                       1.1505000000E+01  7.6700000000E+00  1.1505000000E+01
                       7.6700000000E+00  1.1505000000E+01  1.1505000000E+01
             xred      2.5000000000E-01  2.5000000000E-01  0.0000000000E+00
                       2.5000000000E-01  0.0000000000E+00  2.5000000000E-01
                       0.0000000000E+00  2.5000000000E-01  2.5000000000E-01
                       0.0000000000E+00  0.0000000000E+00  5.0000000000E-01
                       2.5000000000E-01  2.5000000000E-01  5.0000000000E-01
                       2.5000000000E-01  0.0000000000E+00  7.5000000000E-01
                       0.0000000000E+00  2.5000000000E-01  7.5000000000E-01
                       0.0000000000E+00  5.0000000000E-01  0.0000000000E+00
                       2.5000000000E-01  7.5000000000E-01  0.0000000000E+00
                       2.5000000000E-01  5.0000000000E-01  2.5000000000E-01
                       0.0000000000E+00  7.5000000000E-01  2.5000000000E-01
                       0.0000000000E+00  5.0000000000E-01  5.0000000000E-01
                       2.5000000000E-01  7.5000000000E-01  5.0000000000E-01
                       2.5000000000E-01  5.0000000000E-01  7.5000000000E-01
                       0.0000000000E+00  7.5000000000E-01  7.5000000000E-01
                       5.0000000000E-01  0.0000000000E+00  0.0000000000E+00
                       7.5000000000E-01  2.5000000000E-01  0.0000000000E+00
                       7.5000000000E-01  0.0000000000E+00  2.5000000000E-01
                       5.0000000000E-01  2.5000000000E-01  2.5000000000E-01
                       5.0000000000E-01  0.0000000000E+00  5.0000000000E-01
                       7.5000000000E-01  2.5000000000E-01  5.0000000000E-01
                       7.5000000000E-01  0.0000000000E+00  7.5000000000E-01
                       5.0000000000E-01  2.5000000000E-01  7.5000000000E-01
                       5.0000000000E-01  5.0000000000E-01  0.0000000000E+00
                       7.5000000000E-01  7.5000000000E-01  0.0000000000E+00
                       7.5000000000E-01  5.0000000000E-01  2.5000000000E-01
                       5.0000000000E-01  7.5000000000E-01  2.5000000000E-01
                       5.0000000000E-01  5.0000000000E-01  5.0000000000E-01
                       7.5000000000E-01  7.5000000000E-01  5.0000000000E-01
                       7.5000000000E-01  5.0000000000E-01  7.5000000000E-01
                       5.0000000000E-01  7.5000000000E-01  7.5000000000E-01
            znucl       56.00000
 
================================================================================
 
 chkinp: Checking input parameters for consistency.
 DATA TYPE INFORMATION: 
 REAL:      Data type name: REAL(DP) 
            Kind value:      8
            Precision:      15
            Smallest nonnegligible quantity relative to 1:  0.22204460E-15
            Smallest positive number:                       0.22250739-307
            Largest representable number:                   0.17976931+309
 INTEGER:   Data type name: INTEGER(default) 
            Kind value: 4
            Bit size:   32
            Largest representable number: 2147483647
 LOGICAL:   Data type name: LOGICAL 
            Kind value: 4
 CHARACTER: Data type name: CHARACTER             Kind value: 1

  ==== OpenMP parallelism is ON ====
- Max_threads:       4
- Num_threads:       4
- Num_procs:         4
- Dynamic:           F
- Nested:            F
 
  ==== Using MPI-2 specifications ==== 
  MPI-IO support is ON
  xmpi_tag_ub ................      1048575
  xmpi_bsize_ch ..............            1
  xmpi_bsize_int .............            4
  xmpi_bsize_sp ..............            4
  xmpi_bsize_dp ..............            8
  xmpi_bsize_spc .............            8
  xmpi_bsize_dpc .............           16
  xmpio_bsize_frm ............            4
  xmpi_address_kind ..........            8
  xmpi_offset_kind ...........            8
  MPI_WTICK ..................   1.000000000000000E-006
 
================================================================================
== DATASET  1 ==================================================================
-   nproc =    1
 
 
--- !COMMENT
src_file: m_xgScalapack.F90
src_line: 237
message: |
    xgScalapack in auto mode
...
 
 
 getdim_nloc : deduce lmnmax  =  18, lnmax  =   6,
                      lmnmaxso=  18, lnmaxso=   6.
 Exchange-correlation functional for the present dataset will be:
  LDA: Perdew-Wang 92 LSD fit to Ceperley-Alder data - ixc=7
 Citation for XC functional:
  J.P.Perdew and Y.Wang, PRB 45, 13244 (1992)
 
 Unit cell volume ucvol=  3.6097413E+03 bohr^3
 Angles (23,13,12)=  9.00000000E+01  9.00000000E+01  9.00000000E+01 degrees
 
 Coarse grid specifications (used for wave-functions):
 
 getcut: wavevector=  0.0000  0.0000  0.0000  ngfft=  40  40  40
         ecut(hartree)=      8.000   => boxcut(ratio)=   2.04797
 
 Fine grid specifications (used for densities):
 
 getcut: wavevector=  0.0000  0.0000  0.0000  ngfft=  45  45  45
         ecut(hartree)=     10.000   => boxcut(ratio)=   2.01494
- pspini: atom type   1  psp file is ../../../Psps_for_tests/ba.hpc.paw.xml
- pspatm: opening atomic psp file    ../../../Psps_for_tests/ba.hpc.paw.xml
- pspatm : Reading pseudopotential header in XML form from ../../../Psps_for_tests/ba.hpc.paw.xml
 Pseudopotential format is: paw10
 basis_size (lnmax)=  6 (lmn_size= 18), orbitals=   0   0   1   1   2   2
 Spheres core radius: rc_sph= 2.31518568
 1 radial meshes are used:
  - mesh 1: r(i)=AA*[exp(BB*(i-1))-1], size=1500 , AA= 0.15658E-03 BB= 0.87685E-02
 Shapefunction is SIN type: shapef(r)=[sin(pi*r/rshp)/(pi*r/rshp)]**2
 Radius for shape functions =  2.01210979
 mmax= 1500
 Radial grid used for partial waves is grid 1
 Radial grid used for projectors is grid 1
 Radial grid used for (t)core density is grid 1
 Radial grid used for Vloc is grid 1
 Radial grid used for pseudo valence density is grid 1
 Mesh size for Vloc has been set to 1341 to avoid numerical noise.
 Compensation charge density is not taken into account in XC energy/potential
 beta integral value:      -0.881134E+02
 pspatm: atomic psp has been read  and splines computed
 
   5.70955898E+05                                ecore*ucvol(ha*bohr**3)
 ==== Info on pseudopotentials ====
  PAW calculation
  Number of pseudopotentials ..    1
  Number of types of atoms   ..    1
  Scalar calculation (no spin-orbit term)
  Nonlocal part applied using real spherical harmonics
  Max number of non-local projectors over l and type   2
  Highest angular momentum +1 .......   3
  Max number of (l,n)   components ..   6
  Max number of (l,m,n) components ..  18
 
 Pseudo-Core Charge Info: 
   Number of radial points for pseudo-core charge ..    1
   XC core-correction treatment (optnlxccc) ........    1
   Radius for pseudo-core charge for each type ..... 
 
  - Atom type    1 has pseudo-core radius .. 80.0000
 
 Info on the Q-grid used for form factors in spline form: 
   Number of q-points for radial functions ffspl ..   3001
   Number of q-points for vlspl ...................   3001
   vloc is computed in Reciprocal Space
 
  XC functional for type 1 is 7
 
 wfconv:   192 bands initialized randomly with npw=  3887, for ikpt=     1
_setup2: Arith. and geom. avg. npw (full set) are    3887.000    3887.000
 initro: for itypat=  1, take pseudo charge density from pp file
 
================================================================================
 FFT (fine) grid used in SCF cycle:
 
 getcut: wavevector=  0.0000  0.0000  0.0000  ngfft=  45  45  45
         ecut(hartree)=     10.000   => boxcut(ratio)=   2.01494
 average electrostatic smooth potential [Ha] , [eV]      0.000000        0.000000
 
 ****** Psp strength Dij in Ha (atom      1) *****
   0.33615   0.05206   0.00347   0.00000   0.00347  -0.00021  -0.00000  -0.00021  -0.00060   0.00000   0.00035   0.00000 ...
   0.05206   0.00679   0.00068   0.00000   0.00068   0.00029   0.00000   0.00029  -0.00015   0.00000   0.00009   0.00000 ...
   0.00347   0.00068  -0.20099   0.00000  -0.00084  -0.00031   0.00000  -0.00042   0.00085   0.00000  -0.00049   0.00000 ...
   0.00000   0.00000   0.00000  -0.20015   0.00000   0.00000   0.00011   0.00000   0.00000   0.00068   0.00000   0.00068 ...
   0.00347   0.00068  -0.00084   0.00000  -0.20099  -0.00042   0.00000  -0.00031   0.00085   0.00000  -0.00049   0.00000 ...
  -0.00021   0.00029  -0.00031   0.00000  -0.00042  -1.17007   0.00000  -0.00111   0.00049   0.00000  -0.00029   0.00000 ...
  -0.00000   0.00000   0.00000   0.00011   0.00000   0.00000  -1.16896   0.00000   0.00000   0.00032   0.00000   0.00032 ...
  -0.00021   0.00029  -0.00042   0.00000  -0.00031  -0.00111   0.00000  -1.17007   0.00049   0.00000  -0.00029   0.00000 ...
  -0.00060  -0.00015   0.00085   0.00000   0.00085   0.00049   0.00000   0.00049  -0.03395   0.00000   0.00015   0.00000 ...
   0.00000   0.00000   0.00000   0.00068   0.00000   0.00000   0.00032   0.00000   0.00000  -0.03381   0.00000  -0.00011 ...
   0.00035   0.00009  -0.00049   0.00000  -0.00049  -0.00029   0.00000  -0.00029   0.00015   0.00000  -0.03383   0.00000 ...
   0.00000   0.00000   0.00000   0.00068   0.00000   0.00000   0.00032   0.00000   0.00000  -0.00011   0.00000  -0.03381 ...
   ...  only 12  components have been written...
 
 ****** Psp strength Dij in Ha (atom     31) *****
   0.35081   0.05411  -0.00007  -0.00007  -0.00000   0.00000   0.00000   0.00000  -0.00000  -0.00000   0.00001   0.00000 ...
   0.05411   0.00714  -0.00001  -0.00001  -0.00000  -0.00001  -0.00001  -0.00000  -0.00000  -0.00000   0.00000   0.00000 ...
  -0.00007  -0.00001  -0.19614  -0.00001  -0.00000  -0.00071  -0.00000  -0.00000  -0.00000  -0.00001   0.00001   0.00000 ...
  -0.00007  -0.00001  -0.00001  -0.19614   0.00000  -0.00000  -0.00071   0.00000   0.00000  -0.00001  -0.00002  -0.00000 ...
  -0.00000  -0.00000  -0.00000   0.00000  -0.19617  -0.00000   0.00000  -0.00073  -0.00002   0.00000   0.00000  -0.00002 ...
   0.00000  -0.00001  -0.00071  -0.00000  -0.00000  -1.16581  -0.00001  -0.00000  -0.00000  -0.00000   0.00001   0.00000 ...
   0.00000  -0.00001  -0.00000  -0.00071   0.00000  -0.00001  -1.16581   0.00000   0.00000  -0.00000  -0.00001  -0.00000 ...
   0.00000  -0.00000  -0.00000   0.00000  -0.00073  -0.00000   0.00000  -1.16585  -0.00001   0.00000   0.00000  -0.00001 ...
  -0.00000  -0.00000  -0.00000   0.00000  -0.00002  -0.00000   0.00000  -0.00001  -0.03341   0.00000   0.00000  -0.00000 ...
  -0.00000  -0.00000  -0.00001  -0.00001   0.00000  -0.00000  -0.00000   0.00000   0.00000  -0.03341  -0.00000   0.00000 ...
   0.00001   0.00000   0.00001  -0.00002   0.00000   0.00001  -0.00001   0.00000   0.00000  -0.00000  -0.03347   0.00000 ...
   0.00000   0.00000   0.00000  -0.00000  -0.00002   0.00000  -0.00000  -0.00001  -0.00000   0.00000   0.00000  -0.03341 ...
   ...  only 12  components have been written...
 
 
 ITER STEP NUMBER     1
 vtorho: nnsclo_now=2, note that nnsclo,dbl_nnsclo,istep=0 0 1
 Invovl built
 BEFORE
 -1753015296
 -1753015296
 flag_inv_sym 2
 bandpp         192
 size(cprjin)        5952
 hamk%natom          31
 my_nspinor           1
 ndat         192
 size(cprjin)        5952
 hamk%natom          31
 my_nspinor           1
 ndat         192
 flag_inv_sym 2
 bandpp         192
 size(cprjin)        5952
 hamk%natom          31
 my_nspinor           1
 ndat         192
 size(cprjin)        5952
 hamk%natom          31
 my_nspinor           1
 ndat         192
 flag_inv_sym 2
 bandpp         192
 size(cprjin)        5952
 hamk%natom          31
 my_nspinor           1
 ndat         192
 size(cprjin)        5952
 hamk%natom          31
 my_nspinor           1
 ndat         192
 flag_inv_sym 2
 bandpp         192
 size(cprjin)        5952
 hamk%natom          31
 my_nspinor           1
 ndat         192
 size(cprjin)        5952
 hamk%natom          31
 my_nspinor           1
 ndat         192
 flag_inv_sym 2
 bandpp         192
 -2104340032
 X_swap AT THE END
 -1753015296
 ************************
 BITNI POINTERI
 xXcolsRows
 -2104340032
 X
 -2104340032
 X_next
 -2092399168
 X_prev
 -1753015296
 X_NP
 -2104340032
 ***********************
 xgx0 AFTER
 -1753015296
 BEFORE
 -1753015296
 -1753015296
 flag_inv_sym 2
 bandpp         192
 size(cprjin)        5952
 hamk%natom          31
 my_nspinor           1
 ndat         192
 size(cprjin)        5952
 hamk%natom          31
 my_nspinor           1
 ndat         192
 flag_inv_sym 2
 bandpp         192
 size(cprjin)        5952
 hamk%natom          31
 my_nspinor           1
 ndat         192
 size(cprjin)        5952
 hamk%natom          31
 my_nspinor           1
 ndat         192
 flag_inv_sym 2
 bandpp         192
 size(cprjin)        5952
 hamk%natom          31
 my_nspinor           1
 ndat         192
 size(cprjin)        5952
 hamk%natom          31
 my_nspinor           1
 ndat         192
 flag_inv_sym 2
 bandpp         192
 size(cprjin)        5952
 hamk%natom          31
 my_nspinor           1
 ndat         192
 size(cprjin)        5952
 hamk%natom          31
 my_nspinor           1
 ndat         192
 flag_inv_sym 2
 bandpp         192
 -2104435264
 X_swap AT THE END
 -1753015296
 ************************
 BITNI POINTERI
 xXcolsRows
 -2104435264
 X
 -2104435264
 X_next
 -2092494400
 X_prev
 -1753015296
 X_NP
 -2104435264
 ***********************
 xgx0 AFTER
 -1753015296
 size(cprjin)        5952
 hamk%natom          31
 my_nspinor           1
 ndat         192
 newocc: new Fermi energy is       0.738307 , with nelect=    310.000000, Number of bisection calls: 46
 newocc: computed new occ. numbers for occopt= 3 , spin-unpolarized case.
 2.000 2.000 2.000 2.000 2.000 2.000 2.000 2.000 2.000 2.000 2.000 2.000
 2.000 2.000 2.000 2.000 2.000 2.000 2.000 2.000 2.000 2.000 2.000 2.000
 2.000 2.000 2.000 2.000 2.000 2.000 2.000 2.000 2.000 2.000 2.000 2.000
 2.000 2.000 2.000 2.000 2.000 2.000 2.000 2.000 2.000 2.000 2.000 2.000
 2.000 2.000 2.000 2.000 2.000 2.000 2.000 2.000 2.000 2.000 2.000 2.000
 2.000 2.000 2.000 2.000 2.000 2.000 2.000 2.000 2.000 2.000 2.000 2.000
 2.000 2.000 2.000 2.000 2.000 2.000 2.000 2.000 2.000 2.000 2.000 2.000
 2.000 2.000 2.000 2.000 2.000 2.000 2.000 2.000 2.000 2.000 2.000 2.000
 2.000 2.000 2.000 2.000 2.000 2.000 2.000 2.000 2.000 2.000 2.000 2.000
 2.000 2.000 2.000 2.000 2.000 2.000 2.000 2.000 2.000 2.000 2.000 2.000
 2.000 2.000 2.000 2.000 2.000 2.000 2.000 2.000 2.000 2.000 2.000 2.000
 2.000 2.000 2.000 2.000 2.000 2.000 2.000 2.000 2.000 2.000 2.000 2.000
 2.000 2.000 2.000 2.000 2.000 2.000 2.000 2.000 2.000 2.000 1.846 0.154
 0.000 0.000 0.000 0.000 0.000 0.000 0.000 0.000 0.000 0.000 0.000 0.000
 0.000 0.000 0.000 0.000 0.000 0.000 0.000 0.000 0.000 0.000 0.000 0.000
 0.000 0.000 0.000 0.000 0.000 0.000 0.000 0.000 0.000 0.000 0.000 0.000
 mkrho: echo density (plane-wave part only)
 Total charge density [el/Bohr^3]
      Maximum=    4.0965E-01  at reduced coord.    0.7750    0.7750    0.9750
      Minimum=    4.6425E-03  at reduced coord.    0.0000    0.0000    0.0000
   Integrated=    3.8882E+02
 
 PAW TEST:
 ========= Values of RHOIJ before symetrization =========
 
 Atom #  1
   1.67291   0.46761  -0.01936  -0.01283  -0.00621   0.00005   0.00208  -0.00036  -0.01021   0.00006   0.02721  -0.03927 ...
   0.46761   1.95661  -0.00676  -0.00480   0.00482   0.00734  -0.00117  -0.00258   0.01925  -0.00239  -0.21001   0.20440 ...
  -0.01936  -0.00676   1.82044   0.00764   0.01974   0.01693  -0.00012  -0.00253   0.02463  -0.00571   0.00268  -0.00007 ...
  -0.01283  -0.00480   0.00764   1.82680  -0.02081  -0.00050   0.01720   0.00267   0.02140   0.03452   0.02221   0.04581 ...
  -0.00621   0.00482   0.01974  -0.02081   1.82930  -0.00164   0.00261   0.01580   0.05292  -0.00168  -0.03603   0.01063 ...
   0.00005   0.00734   0.01693  -0.00050  -0.00164   0.00235   0.00003  -0.00013   0.00696   0.00050  -0.00606  -0.00014 ...
   0.00208  -0.00117  -0.00012   0.01720   0.00261   0.00003   0.00254  -0.00034  -0.00257   0.00297  -0.00510   0.00156 ...
  -0.00036  -0.00258  -0.00253   0.00267   0.01580  -0.00013  -0.00034   0.00264   0.00422  -0.00046   0.00254  -0.00251 ...
  -0.01021   0.01925   0.02463   0.02140   0.05292   0.00696  -0.00257   0.00422   0.55995  -0.02152  -0.04950  -0.02333 ...
   0.00006  -0.00239  -0.00571   0.03452  -0.00168   0.00050   0.00297  -0.00046  -0.02152   0.45401   0.02275   0.00455 ...
   0.02721  -0.21001   0.00268   0.02221  -0.03603  -0.00606  -0.00510   0.00254  -0.04950   0.02275   0.53055  -0.08714 ...
  -0.03927   0.20440  -0.00007   0.04581   0.01063  -0.00014   0.00156  -0.00251  -0.02333   0.00455  -0.08714   0.39107 ...
   ...  only 12  components have been written...
 Atom # 31
   1.69947   0.42278  -0.00055   0.00140  -0.00545   0.00001   0.00055   0.00122   0.02579  -0.02011   0.06766  -0.02941 ...
   0.42278   2.79929  -0.04188  -0.07655   0.03933   0.00788   0.00654  -0.01100  -0.06643  -0.00228  -0.11114  -0.07728 ...
  -0.00055  -0.04188   1.82214   0.01512  -0.01419   0.01787  -0.00287   0.00208   0.01198   0.00799  -0.03690   0.03161 ...
   0.00140  -0.07655   0.01512   1.82824   0.00466  -0.00134   0.01670  -0.00082   0.00713   0.01178  -0.01878   0.02769 ...
  -0.00545   0.03933  -0.01419   0.00466   1.88157   0.00125  -0.00201   0.01034   0.02027  -0.02400   0.01104  -0.00100 ...
   0.00001   0.00788   0.01787  -0.00134   0.00125   0.00269   0.00022  -0.00019  -0.00333  -0.00125   0.00387  -0.00338 ...
   0.00055   0.00654  -0.00287   0.01670  -0.00201   0.00022   0.00278   0.00027   0.00008  -0.00221   0.00067  -0.00566 ...
   0.00122  -0.01100   0.00208  -0.00082   0.01034  -0.00019   0.00027   0.00358  -0.00070   0.00326   0.00048  -0.00113 ...
   0.02579  -0.06643   0.01198   0.00713   0.02027  -0.00333   0.00008  -0.00070   0.55934   0.01006  -0.04373  -0.01109 ...
  -0.02011  -0.00228   0.00799   0.01178  -0.02400  -0.00125  -0.00221   0.00326   0.01006   0.52645  -0.02518   0.02534 ...
   0.06766  -0.11114  -0.03690  -0.01878   0.01104   0.00387   0.00067   0.00048  -0.04373  -0.02518   0.73069  -0.04591 ...
  -0.02941  -0.07728   0.03161   0.02769  -0.00100  -0.00338  -0.00566  -0.00113  -0.01109   0.02534  -0.04591   0.64890 ...
   ...  only 12  components have been written...
 
 
 PAW TEST:
 ========= Values of RHOIJ after symetrization =========
 
 Atom #  1
   1.68195   0.45983  -0.02308   0.00000  -0.02308   0.00156   0.00000   0.00156   0.00326   0.00000  -0.00242   0.00000 ...
   0.45983   2.17421   0.03087   0.00000   0.03087  -0.00154   0.00000  -0.00154  -0.01987   0.00000  -0.01636   0.00000 ...
  -0.02308   0.03087   1.83947   0.00000   0.01745   0.01452   0.00000  -0.00278   0.04174   0.00000  -0.02230   0.00000 ...
   0.00000   0.00000   0.00000   1.83440   0.00000   0.00000   0.01603   0.00000   0.00000   0.03098   0.00000   0.03098 ...
  -0.02308   0.03087   0.01745   0.00000   1.83947  -0.00278   0.00000   0.01452   0.04174   0.00000  -0.02230   0.00000 ...
   0.00156  -0.00154   0.01452   0.00000  -0.00278   0.00266   0.00000   0.00001   0.00403   0.00000  -0.00265   0.00000 ...
   0.00000   0.00000   0.00000   0.01603   0.00000   0.00000   0.00277   0.00000   0.00000   0.00311   0.00000   0.00311 ...
   0.00156  -0.00154  -0.00278   0.00000   0.01452   0.00001   0.00000   0.00266   0.00403   0.00000  -0.00265   0.00000 ...
   0.00326  -0.01987   0.04174   0.00000   0.04174   0.00403   0.00000   0.00403   0.50903   0.00000  -0.02316   0.00000 ...
   0.00000   0.00000   0.00000   0.03098   0.00000   0.00000   0.00311   0.00000   0.00000   0.46117   0.00000  -0.01076 ...
  -0.00242  -0.01636  -0.02230   0.00000  -0.02230  -0.00265   0.00000  -0.00265  -0.02316   0.00000   0.54336   0.00000 ...
   0.00000   0.00000   0.00000   0.03098   0.00000   0.00000   0.00311   0.00000   0.00000  -0.01076   0.00000   0.46117 ...
   ...  only 12  components have been written...
 Atom # 31
   1.68881   0.45887   0.00218   0.00218   0.00000  -0.00002  -0.00002   0.00000   0.00000   0.01090   0.00700   0.00000 ...
   0.45887   2.32671  -0.01923  -0.01923   0.00000   0.00138   0.00138   0.00000   0.00000  -0.04906  -0.02872   0.00000 ...
   0.00218  -0.01923   1.82826  -0.00057   0.00000   0.01706  -0.00004   0.00000   0.00000   0.00559  -0.00244   0.00000 ...
   0.00218  -0.01923  -0.00057   1.82826   0.00000  -0.00004   0.01706   0.00000   0.00000   0.00559  -0.00072   0.00000 ...
   0.00000   0.00000   0.00000   0.00000   1.86106   0.00000   0.00000   0.01352   0.01045   0.00000   0.00000   0.01045 ...
  -0.00002   0.00138   0.01706  -0.00004   0.00000   0.00270   0.00001   0.00000   0.00000  -0.00041   0.00017   0.00000 ...
  -0.00002   0.00138  -0.00004   0.01706   0.00000   0.00001   0.00270   0.00000   0.00000  -0.00041  -0.00001   0.00000 ...
   0.00000   0.00000   0.00000   0.00000   0.01352   0.00000   0.00000   0.00310  -0.00123   0.00000   0.00000  -0.00123 ...
   0.00000   0.00000   0.00000   0.00000   0.01045   0.00000   0.00000  -0.00123   0.56894   0.00000   0.00000   0.02696 ...
   0.01090  -0.04906   0.00559   0.00559   0.00000  -0.00041  -0.00041   0.00000   0.00000   0.52012   0.01278   0.00000 ...
   0.00700  -0.02872  -0.00244  -0.00072   0.00000   0.00017  -0.00001   0.00000   0.00000   0.01278   0.65421   0.00000 ...
   0.00000   0.00000   0.00000   0.00000   0.01045   0.00000   0.00000  -0.00123   0.02696   0.00000   0.00000   0.56894 ...
   ...  only 12  components have been written...
 
 Total charge density [el/Bohr^3]
      Maximum=    2.1526E-01  at reduced coord.    0.5778    0.7556    0.7778
      Minimum=   -1.2169E-01  at reduced coord.    0.2444    0.2444    0.0000
   Integrated=    3.1000E+02
 ETOT  1  -790.61559369085    -7.906E+02 5.941E+00 1.131E+01
 scprqt: <Vxc>= -4.9191994E-01 hartree
 
 Simple mixing update:
  residual square of the potential:   3.584420464621862E-005
 scfcv_core: previous iteration took 20.91 [s]
 average electrostatic smooth potential [Ha] , [eV]      0.000000        0.000000
 
 ****** Psp strength Dij in Ha (atom      1) *****
   0.39009   0.05945   0.00174   0.00000   0.00174   0.00008  -0.00000   0.00008  -0.00027  -0.00000   0.00011  -0.00000 ...
   0.05945   0.00808   0.00035   0.00000   0.00035   0.00020   0.00000   0.00020  -0.00007  -0.00000   0.00003  -0.00000 ...
   0.00174   0.00035  -0.18380  -0.00000  -0.00038  -0.00103  -0.00000  -0.00018   0.00045  -0.00000  -0.00027   0.00000 ...
   0.00000   0.00000  -0.00000  -0.18355  -0.00000  -0.00000  -0.00091  -0.00000   0.00000   0.00034   0.00000   0.00034 ...
   0.00174   0.00035  -0.00038  -0.00000  -0.18380  -0.00018  -0.00000  -0.00103   0.00045   0.00000  -0.00027  -0.00000 ...
   0.00008   0.00020  -0.00103  -0.00000  -0.00018  -1.15408  -0.00000  -0.00051   0.00033  -0.00000  -0.00019   0.00000 ...
  -0.00000   0.00000  -0.00000  -0.00091  -0.00000  -0.00000  -1.15376  -0.00000   0.00000   0.00020   0.00000   0.00020 ...
   0.00008   0.00020  -0.00018  -0.00000  -0.00103  -0.00051  -0.00000  -1.15408   0.00033   0.00000  -0.00019  -0.00000 ...
  -0.00027  -0.00007   0.00045   0.00000   0.00045   0.00033   0.00000   0.00033  -0.03208   0.00000   0.00006   0.00000 ...
  -0.00000  -0.00000  -0.00000   0.00034   0.00000  -0.00000   0.00020   0.00000   0.00000  -0.03204  -0.00000  -0.00005 ...
   0.00011   0.00003  -0.00027   0.00000  -0.00027  -0.00019   0.00000  -0.00019   0.00006  -0.00000  -0.03206  -0.00000 ...
  -0.00000  -0.00000   0.00000   0.00034  -0.00000   0.00000   0.00020  -0.00000   0.00000  -0.00005  -0.00000  -0.03204 ...
   ...  only 12  components have been written...
 
 ****** Psp strength Dij in Ha (atom     31) *****
   0.39425   0.06011   0.00004   0.00004   0.00000   0.00001   0.00001  -0.00000   0.00000  -0.00006   0.00002   0.00000 ...
   0.06011   0.00822   0.00001   0.00001   0.00000   0.00001   0.00001   0.00000   0.00000  -0.00001   0.00000   0.00000 ...
   0.00004   0.00001  -0.18159  -0.00008   0.00000   0.00006  -0.00003   0.00000   0.00000   0.00002  -0.00000  -0.00000 ...
   0.00004   0.00001  -0.00008  -0.18159   0.00000  -0.00003   0.00006   0.00000  -0.00000   0.00002   0.00000   0.00000 ...
   0.00000   0.00000   0.00000   0.00000  -0.18165   0.00000   0.00000   0.00012   0.00002  -0.00000   0.00000   0.00002 ...
   0.00001   0.00001   0.00006  -0.00003   0.00000  -1.15152  -0.00011   0.00000   0.00000   0.00001  -0.00000  -0.00000 ...
   0.00001   0.00001  -0.00003   0.00006   0.00000  -0.00011  -1.15152   0.00000  -0.00000   0.00001  -0.00000   0.00000 ...
  -0.00000   0.00000   0.00000   0.00000   0.00012   0.00000   0.00000  -1.15149   0.00002  -0.00000   0.00000   0.00002 ...
   0.00000   0.00000   0.00000  -0.00000   0.00002   0.00000  -0.00000   0.00002  -0.03160   0.00000   0.00000  -0.00001 ...
  -0.00006  -0.00001   0.00002   0.00002  -0.00000   0.00001   0.00001  -0.00000   0.00000  -0.03160  -0.00001   0.00000 ...
   0.00002   0.00000  -0.00000   0.00000   0.00000  -0.00000  -0.00000   0.00000   0.00000  -0.00001  -0.03163  -0.00000 ...
   0.00000   0.00000  -0.00000   0.00000   0.00002  -0.00000   0.00000   0.00002  -0.00001   0.00000  -0.00000  -0.03160 ...
   ...  only 12  components have been written...
 
 
 ITER STEP NUMBER     2
 vtorho: nnsclo_now=2, note that nnsclo,dbl_nnsclo,istep=0 0 2
 BEFORE
 -1753015296
 -1753015296
 flag_inv_sym 2
 bandpp         192
 size(cprjin)        5952
 hamk%natom          31
 my_nspinor           1
 ndat         192
 size(cprjin)        5952
 hamk%natom          31
 my_nspinor           1
 ndat         192
 flag_inv_sym 2
 bandpp         192
 size(cprjin)        5952
 hamk%natom          31
 my_nspinor           1
 ndat         192
 size(cprjin)        5952
 hamk%natom          31
 my_nspinor           1
 ndat         192
 flag_inv_sym 2
 bandpp         192
 size(cprjin)        5952
 hamk%natom          31
 my_nspinor           1
 ndat         192
 size(cprjin)        5952
 hamk%natom          31
 my_nspinor           1
 ndat         192
 flag_inv_sym 2
 bandpp         192
 size(cprjin)        5952
 hamk%natom          31
 my_nspinor           1
 ndat         192
 size(cprjin)        5952
 hamk%natom          31
 my_nspinor           1
 ndat         192
 flag_inv_sym 2
 bandpp         192
 -2104285504
 X_swap AT THE END
 -1753015296
 ************************
 BITNI POINTERI
 xXcolsRows
 -2104285504
 X
 -2104285504
 X_next
 -2092344640
 X_prev
 -1753015296
 X_NP
 -2104285504
 ***********************
 xgx0 AFTER
 -1753015296
 BEFORE
 -1753015296
 -1753015296
 flag_inv_sym 2
 bandpp         192
 size(cprjin)        5952
 hamk%natom          31
 my_nspinor           1
 ndat         192
 size(cprjin)        5952
 hamk%natom          31
 my_nspinor           1
 ndat         192
 flag_inv_sym 2
 bandpp         192
 size(cprjin)        5952
 hamk%natom          31
 my_nspinor           1
 ndat         192
 size(cprjin)        5952
 hamk%natom          31
 my_nspinor           1
 ndat         192
 flag_inv_sym 2
 bandpp         192
 size(cprjin)        5952
 hamk%natom          31
 my_nspinor           1
 ndat         192
 size(cprjin)        5952
 hamk%natom          31
 my_nspinor           1
 ndat         192
 flag_inv_sym 2
 bandpp         192
 size(cprjin)        5952
 hamk%natom          31
 my_nspinor           1
 ndat         192
 size(cprjin)        5952
 hamk%natom          31
 my_nspinor           1
 ndat         192
 flag_inv_sym 2
 bandpp         192
 -2104380544
 X_swap AT THE END
 -1753015296
 ************************
 BITNI POINTERI
 xXcolsRows
 -2104380544
 X
 -2104380544
 X_next
 -2092439680
 X_prev
 -1753015296
 X_NP
 -2104380544
 ***********************
 xgx0 AFTER
 -1753015296
 size(cprjin)        5952
 hamk%natom          31
 my_nspinor           1
 ndat         192
 newocc: new Fermi energy is       0.476756 , with nelect=    310.000000, Number of bisection calls: 45
 newocc: computed new occ. numbers for occopt= 3 , spin-unpolarized case.
 2.000 2.000 2.000 2.000 2.000 2.000 2.000 2.000 2.000 2.000 2.000 2.000
 2.000 2.000 2.000 2.000 2.000 2.000 2.000 2.000 2.000 2.000 2.000 2.000
 2.000 2.000 2.000 2.000 2.000 2.000 2.000 2.000 2.000 2.000 2.000 2.000
 2.000 2.000 2.000 2.000 2.000 2.000 2.000 2.000 2.000 2.000 2.000 2.000
 2.000 2.000 2.000 2.000 2.000 2.000 2.000 2.000 2.000 2.000 2.000 2.000
 2.000 2.000 2.000 2.000 2.000 2.000 2.000 2.000 2.000 2.000 2.000 2.000
 2.000 2.000 2.000 2.000 2.000 2.000 2.000 2.000 2.000 2.000 2.000 2.000
 2.000 2.000 2.000 2.000 2.000 2.000 2.000 2.000 2.000 2.000 2.000 2.000
 2.000 2.000 2.000 2.000 2.000 2.000 2.000 2.000 2.000 2.000 2.000 2.000
 2.000 2.000 2.000 2.000 2.000 2.000 2.000 2.000 2.000 2.000 2.000 2.000
 2.000 2.000 2.000 2.000 2.000 2.000 2.000 2.000 2.000 2.000 2.000 2.000
 2.000 2.000 2.000 2.000 2.000 2.000 2.000 2.000 2.000 2.000 2.000 2.000
 2.000 2.000 2.000 2.000 2.000 2.000 2.000 2.000 2.000 2.000 1.794 0.205
 0.000 0.000 0.000 0.000 0.000 0.000 0.000 0.000 0.000 0.000 0.000 0.000
 0.000 0.000 0.000 0.000 0.000 0.000 0.000 0.000 0.000 0.000 0.000 0.000
 0.000 0.000 0.000 0.000 0.000 0.000 0.000 0.000 0.000 0.000 0.000 0.000
 mkrho: echo density (plane-wave part only)
 Total charge density [el/Bohr^3]
      Maximum=    4.3954E-01  at reduced coord.    0.5250    0.5250    0.9750
      Minimum=    4.0370E-03  at reduced coord.    0.0000    0.0000    0.0000
   Integrated=    3.9193E+02
 
 PAW TEST:
 ========= Values of RHOIJ before symetrization =========
 
 Atom #  1
   1.95042   0.10229  -0.01272  -0.00308   0.00316   0.00020   0.00071  -0.00148   0.01227  -0.00521  -0.01580   0.00390 ...
   0.10229   0.49317   0.01172   0.00509   0.00007   0.00217  -0.00172   0.00210  -0.00525   0.01163  -0.01240   0.05005 ...
  -0.01272   0.01172   1.84277   0.00791   0.01181   0.01412  -0.00079  -0.00162   0.01204  -0.00342  -0.00414   0.00551 ...
  -0.00308   0.00509   0.00791   1.86650   0.00129  -0.00089   0.01189  -0.00000   0.00475   0.00616   0.00021   0.01040 ...
   0.00316   0.00007   0.01181   0.00129   1.84296  -0.00153   0.00009   0.01408   0.01567  -0.01204  -0.01932   0.00108 ...
   0.00020   0.00217   0.01412  -0.00089  -0.00153   0.00167   0.00010  -0.00005   0.00334   0.00054  -0.00229  -0.00017 ...
   0.00071  -0.00172  -0.00079   0.01189   0.00009   0.00010   0.00209  -0.00002  -0.00071   0.00189  -0.00056   0.00113 ...
  -0.00148   0.00210  -0.00162  -0.00000   0.01408  -0.00005  -0.00002   0.00168   0.00293   0.00138  -0.00005  -0.00024 ...
   0.01227  -0.00525   0.01204   0.00475   0.01567   0.00334  -0.00071   0.00293   0.40592   0.00929   0.02014  -0.01377 ...
  -0.00521   0.01163  -0.00342   0.00616  -0.01204   0.00054   0.00189   0.00138   0.00929   0.43784  -0.01171  -0.01667 ...
  -0.01580  -0.01240  -0.00414   0.00021  -0.01932  -0.00229  -0.00056  -0.00005   0.02014  -0.01171   0.46580  -0.05614 ...
   0.00390   0.05005   0.00551   0.01040   0.00108  -0.00017   0.00113  -0.00024  -0.01377  -0.01667  -0.05614   0.41862 ...
   ...  only 12  components have been written...
 Atom # 31
   1.98731   0.12264  -0.00543  -0.00710  -0.00758   0.00075   0.00105   0.00093   0.00948  -0.01504   0.04821  -0.00792 ...
   0.12264   0.41403  -0.00064  -0.00944   0.02973   0.00042   0.00082  -0.00444  -0.05807  -0.01105  -0.09773  -0.00896 ...
  -0.00543  -0.00064   1.83048  -0.00474  -0.00998   0.01590   0.00031   0.00119   0.00898   0.00640  -0.01740   0.00788 ...
  -0.00710  -0.00944  -0.00474   1.82433   0.00009   0.00028   0.01651  -0.00011   0.00338   0.00175  -0.01528  -0.00174 ...
  -0.00758   0.02973  -0.00998   0.00009   1.86719   0.00099  -0.00010   0.01185   0.02099  -0.01854   0.00471   0.00602 ...
   0.00075   0.00042   0.01590   0.00028   0.00099   0.00186  -0.00003  -0.00011  -0.00157  -0.00078   0.00249  -0.00094 ...
   0.00105   0.00082   0.00031   0.01651  -0.00010  -0.00003   0.00180   0.00003   0.00023  -0.00046   0.00197  -0.00064 ...
   0.00093  -0.00444   0.00119  -0.00011   0.01185  -0.00011   0.00003   0.00228  -0.00206   0.00211  -0.00008  -0.00096 ...
   0.00948  -0.05807   0.00898   0.00338   0.02099  -0.00157   0.00023  -0.00206   0.49232  -0.00302   0.01167   0.00183 ...
  -0.01504  -0.01105   0.00640   0.00175  -0.01854  -0.00078  -0.00046   0.00211  -0.00302   0.46804   0.00439   0.04165 ...
   0.04821  -0.09773  -0.01740  -0.01528   0.00471   0.00249   0.00197  -0.00008   0.01167   0.00439   0.63677  -0.01271 ...
  -0.00792  -0.00896   0.00788  -0.00174   0.00602  -0.00094  -0.00064  -0.00096   0.00183   0.04165  -0.01271   0.56292 ...
   ...  only 12  components have been written...
 
 
 PAW TEST:
 ========= Values of RHOIJ after symetrization =========
 
 Atom #  1
   1.94868   0.12985  -0.00515   0.00000  -0.00515  -0.00033   0.00000  -0.00033   0.02081   0.00000  -0.03109   0.00000 ...
   0.12985   0.40574   0.01216   0.00000   0.01216   0.00087   0.00000   0.00087  -0.03110   0.00000   0.01692   0.00000 ...
  -0.00515   0.01216   1.84941   0.00000   0.01234   0.01330   0.00000  -0.00174   0.01081   0.00000  -0.01491   0.00000 ...
   0.00000   0.00000   0.00000   1.86774   0.00000   0.00000   0.01173   0.00000   0.00000   0.00512   0.00000   0.00512 ...
  -0.00515   0.01216   0.01234   0.00000   1.84941  -0.00174   0.00000   0.01330   0.01081   0.00000  -0.01491   0.00000 ...
  -0.00033   0.00087   0.01330   0.00000  -0.00174   0.00176   0.00000  -0.00002   0.00311   0.00000  -0.00098   0.00000 ...
   0.00000   0.00000   0.00000   0.01173   0.00000   0.00000   0.00211   0.00000   0.00000   0.00202   0.00000   0.00202 ...
  -0.00033   0.00087  -0.00174   0.00000   0.01330  -0.00002   0.00000   0.00176   0.00311   0.00000  -0.00098   0.00000 ...
   0.02081  -0.03110   0.01081   0.00000   0.01081   0.00311   0.00000   0.00311   0.41640   0.00000   0.04423   0.00000 ...
   0.00000   0.00000   0.00000   0.00512   0.00000   0.00000   0.00202   0.00000   0.00000   0.43762   0.00000  -0.02023 ...
  -0.03109   0.01692  -0.01491   0.00000  -0.01491  -0.00098   0.00000  -0.00098   0.04423   0.00000   0.48417   0.00000 ...
   0.00000   0.00000   0.00000   0.00512   0.00000   0.00000   0.00202   0.00000   0.00000  -0.02023   0.00000   0.43762 ...
   ...  only 12  components have been written...
 Atom # 31
   1.96420   0.12927  -0.00271  -0.00271   0.00000   0.00033   0.00033   0.00000   0.00000   0.00005   0.00268   0.00000 ...
   0.12927   0.44827   0.00052   0.00052   0.00000   0.00001   0.00001   0.00000   0.00000  -0.01478  -0.01540   0.00000 ...
  -0.00271   0.00052   1.83109  -0.00073   0.00000   0.01572   0.00001   0.00000   0.00000   0.00735  -0.00644   0.00000 ...
  -0.00271   0.00052  -0.00073   1.83109   0.00000   0.00001   0.01572   0.00000   0.00000   0.00735  -0.00023   0.00000 ...
   0.00000   0.00000   0.00000   0.00000   1.86096   0.00000   0.00000   0.01269   0.00572   0.00000   0.00000   0.00572 ...
   0.00033   0.00001   0.01572   0.00001   0.00000   0.00190  -0.00001   0.00000   0.00000  -0.00081   0.00070   0.00000 ...
   0.00033   0.00001   0.00001   0.01572   0.00000  -0.00001   0.00190   0.00000   0.00000  -0.00081   0.00009   0.00000 ...
   0.00000   0.00000   0.00000   0.00000   0.01269   0.00000   0.00000   0.00217  -0.00074   0.00000   0.00000  -0.00074 ...
   0.00000   0.00000   0.00000   0.00000   0.00572   0.00000   0.00000  -0.00074   0.51482   0.00000   0.00000   0.01681 ...
   0.00005  -0.01478   0.00735   0.00735   0.00000  -0.00081  -0.00081   0.00000   0.00000   0.48748   0.00232   0.00000 ...
   0.00268  -0.01540  -0.00644  -0.00023   0.00000   0.00070   0.00009   0.00000   0.00000   0.00232   0.58909   0.00000 ...
   0.00000   0.00000   0.00000   0.00000   0.00572   0.00000   0.00000  -0.00074   0.01681   0.00000   0.00000   0.51482 ...
   ...  only 12  components have been written...
 
 Total charge density [el/Bohr^3]
      Maximum=    2.1253E-01  at reduced coord.    0.5333    0.5556    0.5556
      Minimum=   -8.9251E-02  at reduced coord.    0.2444    0.2444    0.0000
   Integrated=    3.1000E+02
 ETOT  2  -798.88011571306    -8.265E+00 8.859E+00 1.582E+00
 scprqt: <Vxc>= -4.9319142E-01 hartree
 
 Pulay update with  1 previous iterations:
 mixing of old trial potential: alpha(m:m-4)=   1.08     -0.774E-01
 scfcv_core: previous iteration took 20.86 [s]
 average electrostatic smooth potential [Ha] , [eV]      0.000000        0.000000
 
 ****** Psp strength Dij in Ha (atom      1) *****
   0.41396   0.06299   0.00045  -0.00000   0.00045   0.00010   0.00000   0.00010  -0.00013   0.00000  -0.00001   0.00000 ...
   0.06299   0.00873   0.00009  -0.00000   0.00009   0.00008  -0.00000   0.00008  -0.00003   0.00000  -0.00000   0.00000 ...
   0.00045   0.00009  -0.17536   0.00000  -0.00018  -0.00100   0.00000  -0.00010   0.00016   0.00000  -0.00009   0.00000 ...
  -0.00000  -0.00000   0.00000  -0.17537   0.00000   0.00000  -0.00099   0.00000   0.00000   0.00007  -0.00000   0.00007 ...
   0.00045   0.00009  -0.00018   0.00000  -0.17536  -0.00010   0.00000  -0.00100   0.00016   0.00000  -0.00009   0.00000 ...
   0.00010   0.00008  -0.00100   0.00000  -0.00010  -1.14701   0.00000  -0.00028   0.00016   0.00000  -0.00009   0.00000 ...
   0.00000  -0.00000   0.00000  -0.00099   0.00000   0.00000  -1.14700   0.00000   0.00000   0.00005  -0.00000   0.00005 ...
   0.00010   0.00008  -0.00010   0.00000  -0.00100  -0.00028   0.00000  -1.14701   0.00016   0.00000  -0.00009   0.00000 ...
  -0.00013  -0.00003   0.00016   0.00000   0.00016   0.00016   0.00000   0.00016  -0.03105  -0.00000   0.00003  -0.00000 ...
   0.00000   0.00000   0.00000   0.00007   0.00000   0.00000   0.00005   0.00000  -0.00000  -0.03104   0.00000  -0.00002 ...
  -0.00001  -0.00000  -0.00009  -0.00000  -0.00009  -0.00009  -0.00000  -0.00009   0.00003   0.00000  -0.03107   0.00000 ...
   0.00000   0.00000   0.00000   0.00007   0.00000   0.00000   0.00005   0.00000  -0.00000  -0.00002   0.00000  -0.03104 ...
   ...  only 12  components have been written...
 
 ****** Psp strength Dij in Ha (atom     31) *****
   0.40610   0.06198   0.00050   0.00050   0.00000  -0.00002  -0.00002  -0.00000  -0.00000  -0.00006   0.00002  -0.00000 ...
   0.06198   0.00859   0.00010   0.00010   0.00000   0.00004   0.00004   0.00000  -0.00000  -0.00001   0.00000  -0.00000 ...
   0.00050   0.00010  -0.17691  -0.00008  -0.00000   0.00059  -0.00004  -0.00000   0.00000   0.00011  -0.00007   0.00000 ...
   0.00050   0.00010  -0.00008  -0.17691  -0.00000  -0.00004   0.00059  -0.00000   0.00000   0.00011   0.00012   0.00000 ...
   0.00000   0.00000  -0.00000  -0.00000  -0.17697  -0.00000  -0.00000   0.00067   0.00012   0.00000  -0.00000   0.00012 ...
  -0.00002   0.00004   0.00059  -0.00004  -0.00000  -1.14762  -0.00010  -0.00000   0.00000   0.00006  -0.00004   0.00000 ...
  -0.00002   0.00004  -0.00004   0.00059  -0.00000  -0.00010  -1.14762  -0.00000   0.00000   0.00006   0.00006   0.00000 ...
  -0.00000   0.00000  -0.00000  -0.00000   0.00067  -0.00000  -0.00000  -1.14757   0.00007   0.00000  -0.00000   0.00007 ...
  -0.00000  -0.00000   0.00000   0.00000   0.00012   0.00000   0.00000   0.00007  -0.03093   0.00000   0.00000  -0.00001 ...
  -0.00006  -0.00001   0.00011   0.00011   0.00000   0.00006   0.00006   0.00000   0.00000  -0.03093  -0.00001   0.00000 ...
   0.00002   0.00000  -0.00007   0.00012  -0.00000  -0.00004   0.00006  -0.00000   0.00000  -0.00001  -0.03095  -0.00000 ...
  -0.00000  -0.00000   0.00000   0.00000   0.00012   0.00000   0.00000   0.00007  -0.00001   0.00000  -0.00000  -0.03093 ...
   ...  only 12  components have been written...
 
 
 ITER STEP NUMBER     3
 vtorho: nnsclo_now=1, note that nnsclo,dbl_nnsclo,istep=0 0 3
 BEFORE
 -1753015296
 -1753015296
 flag_inv_sym 2
 bandpp         192
 size(cprjin)        5952
 hamk%natom          31
 my_nspinor           1
 ndat         192
 size(cprjin)        5952
 hamk%natom          31
 my_nspinor           1
 ndat         192
 flag_inv_sym 2
 bandpp         192
 size(cprjin)        5952
 hamk%natom          31
 my_nspinor           1
 ndat         192
 size(cprjin)        5952
 hamk%natom          31
 my_nspinor           1
 ndat         192
 flag_inv_sym 2
 bandpp         192
 size(cprjin)        5952
 hamk%natom          31
 my_nspinor           1
 ndat         192
 size(cprjin)        5952
 hamk%natom          31
 my_nspinor           1
 ndat         192
 flag_inv_sym 2
 bandpp         192
 size(cprjin)        5952
 hamk%natom          31
 my_nspinor           1
 ndat         192
 size(cprjin)        5952
 hamk%natom          31
 my_nspinor           1
 ndat         192
 flag_inv_sym 2
 bandpp         192
 -2107461632
 X_swap AT THE END
 -1753015296
 ************************
 BITNI POINTERI
 xXcolsRows
 -2107461632
 X
 -2107461632
 X_next
 -2095520768
 X_prev
 -1753015296
 X_NP
 -2107461632
 ***********************
 xgx0 AFTER
 -1753015296
 size(cprjin)        5952
 hamk%natom          31
 my_nspinor           1
 ndat         192
 newocc: new Fermi energy is       0.411065 , with nelect=    310.000000, Number of bisection calls: 47
 newocc: computed new occ. numbers for occopt= 3 , spin-unpolarized case.
 2.000 2.000 2.000 2.000 2.000 2.000 2.000 2.000 2.000 2.000 2.000 2.000
 2.000 2.000 2.000 2.000 2.000 2.000 2.000 2.000 2.000 2.000 2.000 2.000
 2.000 2.000 2.000 2.000 2.000 2.000 2.000 2.000 2.000 2.000 2.000 2.000
 2.000 2.000 2.000 2.000 2.000 2.000 2.000 2.000 2.000 2.000 2.000 2.000
 2.000 2.000 2.000 2.000 2.000 2.000 2.000 2.000 2.000 2.000 2.000 2.000
 2.000 2.000 2.000 2.000 2.000 2.000 2.000 2.000 2.000 2.000 2.000 2.000
 2.000 2.000 2.000 2.000 2.000 2.000 2.000 2.000 2.000 2.000 2.000 2.000
 2.000 2.000 2.000 2.000 2.000 2.000 2.000 2.000 2.000 2.000 2.000 2.000
 2.000 2.000 2.000 2.000 2.000 2.000 2.000 2.000 2.000 2.000 2.000 2.000
 2.000 2.000 2.000 2.000 2.000 2.000 2.000 2.000 2.000 2.000 2.000 2.000
 2.000 2.000 2.000 2.000 2.000 2.000 2.000 2.000 2.000 2.000 2.000 2.000
 2.000 2.000 2.000 2.000 2.000 2.000 2.000 2.000 2.000 2.000 2.000 2.000
 2.000 2.000 2.000 2.000 2.000 2.000 1.998 1.989 1.953 1.725 1.279 0.710
 0.245 0.092 0.008 0.001 0.000 0.000 0.000 0.000 0.000 0.000 0.000 0.000
 0.000 0.000 0.000 0.000 0.000 0.000 0.000 0.000 0.000 0.000 0.000 0.000
 0.000 0.000 0.000 0.000 0.000 0.000 0.000 0.000 0.000 0.000 0.000 0.000
 mkrho: echo density (plane-wave part only)
 Total charge density [el/Bohr^3]
      Maximum=    4.5169E-01  at reduced coord.    0.5000    0.5250    0.5250
      Minimum=    4.7190E-03  at reduced coord.    0.0000    0.0000    0.0000
   Integrated=    3.9301E+02
 
 PAW TEST:
 ========= Values of RHOIJ before symetrization =========
 
 Atom #  1
   2.02702   0.01857  -0.00227   0.00144   0.01077  -0.00039  -0.00016  -0.00192   0.03279  -0.01415  -0.05033  -0.00455 ...
   0.01857   0.15863   0.00776  -0.00099  -0.00392   0.00056   0.00004   0.00177  -0.02409   0.01608   0.03030   0.01010 ...
  -0.00227   0.00776   1.86237   0.00550   0.01899   0.01129  -0.00059  -0.00217   0.00381   0.00107  -0.02754   0.00034 ...
   0.00144  -0.00099   0.00550   1.87363   0.00356  -0.00054   0.01014  -0.00023   0.00253  -0.00270  -0.00210   0.01270 ...
   0.01077  -0.00392   0.01899   0.00356   1.86456  -0.00211  -0.00030   0.01102   0.00934  -0.00314  -0.01965  -0.00563 ...
  -0.00039   0.00056   0.01129  -0.00054  -0.00211   0.00159   0.00006   0.00005   0.00236   0.00003   0.00146   0.00041 ...
  -0.00016   0.00004  -0.00059   0.01014  -0.00030   0.00006   0.00182   0.00002  -0.00041   0.00161   0.00003  -0.00030 ...
  -0.00192   0.00177  -0.00217  -0.00023   0.01102   0.00005   0.00002   0.00163   0.00188   0.00059   0.00081   0.00077 ...
   0.03279  -0.02409   0.00381   0.00253   0.00934   0.00236  -0.00041   0.00188   0.41222   0.00829   0.08518  -0.00967 ...
  -0.01415   0.01608   0.00107  -0.00270  -0.00314   0.00003   0.00161   0.00059   0.00829   0.45451  -0.02304  -0.01814 ...
  -0.05033   0.03030  -0.02754  -0.00210  -0.01965   0.00146   0.00003   0.00081   0.08518  -0.02304   0.50659  -0.06566 ...
  -0.00455   0.01010   0.00034   0.01270  -0.00563   0.00041  -0.00030   0.00077  -0.00967  -0.01814  -0.06566   0.45450 ...
   ...  only 12  components have been written...
 Atom # 31
   2.07132  -0.02452  -0.00602  -0.00904  -0.00342   0.00060   0.00102   0.00038  -0.01092  -0.00821   0.00297  -0.00245 ...
  -0.02452   0.18641   0.00702   0.00466   0.00634  -0.00042  -0.00027  -0.00101   0.01558   0.01096  -0.00195   0.00133 ...
  -0.00602   0.00702   1.83602  -0.00289  -0.00827   0.01408   0.00018   0.00088  -0.00756   0.00401  -0.01285   0.00528 ...
  -0.00904   0.00466  -0.00289   1.83853   0.00166   0.00023   0.01385  -0.00019   0.00274  -0.00027  -0.00408   0.00174 ...
  -0.00342   0.00634  -0.00827   0.00166   1.86569   0.00082  -0.00019   0.01101   0.00838  -0.01536   0.01662  -0.00079 ...
   0.00060  -0.00042   0.01408   0.00023   0.00082   0.00165  -0.00004  -0.00009   0.00057  -0.00009   0.00127  -0.00047 ...
   0.00102  -0.00027   0.00018   0.01385  -0.00019  -0.00004   0.00167   0.00002  -0.00011   0.00026   0.00124  -0.00043 ...
   0.00038  -0.00101   0.00088  -0.00019   0.01101  -0.00009   0.00002   0.00195  -0.00055   0.00161  -0.00172   0.00042 ...
  -0.01092   0.01558  -0.00756   0.00274   0.00838   0.00057  -0.00011  -0.00055   0.50462   0.00731  -0.00971  -0.02009 ...
  -0.00821   0.01096   0.00401  -0.00027  -0.01536  -0.00009   0.00026   0.00161   0.00731   0.44582   0.02510   0.01019 ...
   0.00297  -0.00195  -0.01285  -0.00408   0.01662   0.00127   0.00124  -0.00172  -0.00971   0.02510   0.61472   0.01578 ...
  -0.00245   0.00133   0.00528   0.00174  -0.00079  -0.00047  -0.00043   0.00042  -0.02009   0.01019   0.01578   0.49808 ...
   ...  only 12  components have been written...
 
 
 PAW TEST:
 ========= Values of RHOIJ after symetrization =========
 
 Atom #  1
   2.03053   0.01007   0.00217   0.00000   0.00217  -0.00085   0.00000  -0.00085   0.02893   0.00000  -0.05274   0.00000 ...
   0.01007   0.16724   0.00055   0.00000   0.00055   0.00117   0.00000   0.00117  -0.02898   0.00000   0.03823   0.00000 ...
   0.00217   0.00055   1.86077   0.00000   0.01308   0.01142   0.00000  -0.00157   0.00797   0.00000  -0.01739   0.00000 ...
   0.00000   0.00000   0.00000   1.87920   0.00000   0.00000   0.00960   0.00000   0.00000   0.00659   0.00000   0.00659 ...
   0.00217   0.00055   0.01308   0.00000   1.86077  -0.00157   0.00000   0.01142   0.00797   0.00000  -0.01739   0.00000 ...
  -0.00085   0.00117   0.01142   0.00000  -0.00157   0.00158   0.00000   0.00000   0.00186   0.00000   0.00034   0.00000 ...
   0.00000   0.00000   0.00000   0.00960   0.00000   0.00000   0.00187   0.00000   0.00000   0.00063   0.00000   0.00063 ...
  -0.00085   0.00117  -0.00157   0.00000   0.01142   0.00000   0.00000   0.00158   0.00186   0.00000   0.00034   0.00000 ...
   0.02893  -0.02898   0.00797   0.00000   0.00797   0.00186   0.00000   0.00186   0.41110   0.00000   0.06876   0.00000 ...
   0.00000   0.00000   0.00000   0.00659   0.00000   0.00000   0.00063   0.00000   0.00000   0.46081   0.00000  -0.02680 ...
  -0.05274   0.03823  -0.01739   0.00000  -0.01739   0.00034   0.00000   0.00034   0.06876   0.00000   0.51610   0.00000 ...
   0.00000   0.00000   0.00000   0.00659   0.00000   0.00000   0.00063   0.00000   0.00000  -0.02680   0.00000   0.46081 ...
   ...  only 12  components have been written...
 Atom # 31
   2.05911  -0.01255  -0.00459  -0.00459   0.00000   0.00041   0.00041   0.00000   0.00000  -0.00659  -0.00047   0.00000 ...
  -0.01255   0.18531   0.00637   0.00637   0.00000  -0.00023  -0.00023   0.00000   0.00000   0.00257   0.00406   0.00000 ...
  -0.00459   0.00637   1.83746   0.00258   0.00000   0.01390  -0.00031   0.00000   0.00000   0.00594  -0.00792   0.00000 ...
  -0.00459   0.00637   0.00258   1.83746   0.00000  -0.00031   0.01390   0.00000   0.00000   0.00594   0.00230   0.00000 ...
   0.00000   0.00000   0.00000   0.00000   1.86012   0.00000   0.00000   0.01167  -0.00013   0.00000   0.00000  -0.00013 ...
   0.00041  -0.00023   0.01390  -0.00031   0.00000   0.00168   0.00001   0.00000   0.00000  -0.00025   0.00050   0.00000 ...
   0.00041  -0.00023  -0.00031   0.01390   0.00000   0.00001   0.00168   0.00000   0.00000  -0.00025   0.00032   0.00000 ...
   0.00000   0.00000   0.00000   0.00000   0.01167   0.00000   0.00000   0.00187   0.00025   0.00000   0.00000   0.00025 ...
   0.00000   0.00000   0.00000   0.00000  -0.00013   0.00000   0.00000   0.00025   0.50495   0.00000   0.00000   0.00241 ...
  -0.00659   0.00257   0.00594   0.00594   0.00000  -0.00025  -0.00025   0.00000   0.00000   0.45930   0.01239   0.00000 ...
  -0.00047   0.00406  -0.00792   0.00230   0.00000   0.00050   0.00032   0.00000   0.00000   0.01239   0.54563   0.00000 ...
   0.00000   0.00000   0.00000   0.00000  -0.00013   0.00000   0.00000   0.00025   0.00241   0.00000   0.00000   0.50495 ...
   ...  only 12  components have been written...
 
 Total charge density [el/Bohr^3]
      Maximum=    2.1177E-01  at reduced coord.    0.6889    0.7111    0.9556
      Minimum=   -8.2412E-02  at reduced coord.    0.2444    0.2444    0.0000
   Integrated=    3.1000E+02
 ETOT  3  -800.01224795319    -1.132E+00 5.804E-01 3.816E-01
 scprqt: <Vxc>= -4.9460221E-01 hartree
 
 Pulay update with  2 previous iterations:
 mixing of old trial potential: alpha(m:m-4)=   1.57     -0.721      0.148
 scfcv_core: previous iteration took 11.60 [s]
 average electrostatic smooth potential [Ha] , [eV]      0.000000        0.000000
 
 ****** Psp strength Dij in Ha (atom      1) *****
   0.42065   0.06414  -0.00025   0.00000  -0.00025   0.00014  -0.00000   0.00014   0.00000  -0.00000  -0.00003  -0.00000 ...
   0.06414   0.00897  -0.00004   0.00000  -0.00004   0.00002   0.00000   0.00002  -0.00000  -0.00000  -0.00001  -0.00000 ...
  -0.00025  -0.00004  -0.17211  -0.00000  -0.00001   0.00001  -0.00000  -0.00002   0.00001  -0.00000  -0.00000   0.00000 ...
   0.00000   0.00000  -0.00000  -0.17219  -0.00000  -0.00000  -0.00007  -0.00000   0.00000  -0.00006   0.00000  -0.00006 ...
  -0.00025  -0.00004  -0.00001  -0.00000  -0.17211  -0.00002  -0.00000   0.00001   0.00001   0.00000  -0.00000  -0.00000 ...
   0.00014   0.00002   0.00001  -0.00000  -0.00002  -1.14405  -0.00000  -0.00005   0.00008  -0.00000  -0.00004   0.00000 ...
  -0.00000   0.00000  -0.00000  -0.00007  -0.00000  -0.00000  -1.14416  -0.00000   0.00000  -0.00001   0.00000  -0.00001 ...
   0.00014   0.00002  -0.00002  -0.00000   0.00001  -0.00005  -0.00000  -1.14405   0.00008   0.00000  -0.00004  -0.00000 ...
   0.00000  -0.00000   0.00001   0.00000   0.00001   0.00008   0.00000   0.00008  -0.03045   0.00000   0.00000   0.00000 ...
  -0.00000  -0.00000  -0.00000  -0.00006   0.00000  -0.00000  -0.00001   0.00000   0.00000  -0.03046  -0.00000   0.00001 ...
  -0.00003  -0.00001  -0.00000   0.00000  -0.00000  -0.00004   0.00000  -0.00004   0.00000  -0.00000  -0.03048  -0.00000 ...
  -0.00000  -0.00000   0.00000  -0.00006  -0.00000   0.00000  -0.00001  -0.00000   0.00000   0.00001  -0.00000  -0.03046 ...
   ...  only 12  components have been written...
 
 ****** Psp strength Dij in Ha (atom     31) *****
   0.40959   0.06263   0.00060   0.00060   0.00000  -0.00005  -0.00005  -0.00000   0.00000  -0.00010   0.00001   0.00000 ...
   0.06263   0.00872   0.00011   0.00011   0.00000   0.00005   0.00005   0.00000   0.00000  -0.00002   0.00000   0.00000 ...
   0.00060   0.00011  -0.17539  -0.00014   0.00000   0.00066  -0.00005   0.00000   0.00000   0.00012  -0.00008  -0.00000 ...
   0.00060   0.00011  -0.00014  -0.17539   0.00000  -0.00005   0.00066   0.00000  -0.00000   0.00012   0.00014   0.00000 ...
   0.00000   0.00000   0.00000   0.00000  -0.17542   0.00000   0.00000   0.00066   0.00013  -0.00000   0.00000   0.00013 ...
  -0.00005   0.00005   0.00066  -0.00005   0.00000  -1.14664  -0.00016   0.00000   0.00000   0.00006  -0.00004  -0.00000 ...
  -0.00005   0.00005  -0.00005   0.00066   0.00000  -0.00016  -1.14664   0.00000  -0.00000   0.00006   0.00007   0.00000 ...
  -0.00000   0.00000   0.00000   0.00000   0.00066   0.00000   0.00000  -1.14667   0.00007  -0.00000   0.00000   0.00007 ...
   0.00000   0.00000   0.00000  -0.00000   0.00013   0.00000  -0.00000   0.00007  -0.03071   0.00000   0.00000  -0.00002 ...
  -0.00010  -0.00002   0.00012   0.00012  -0.00000   0.00006   0.00006  -0.00000   0.00000  -0.03072  -0.00001   0.00000 ...
   0.00001   0.00000  -0.00008   0.00014   0.00000  -0.00004   0.00007   0.00000   0.00000  -0.00001  -0.03074  -0.00000 ...
   0.00000   0.00000  -0.00000   0.00000   0.00013  -0.00000   0.00000   0.00007  -0.00002   0.00000  -0.00000  -0.03071 ...
   ...  only 12  components have been written...
 
 
 ITER STEP NUMBER     4
 vtorho: nnsclo_now=1, note that nnsclo,dbl_nnsclo,istep=0 0 4
 BEFORE
 -1753015296
 -1753015296
 flag_inv_sym 2
 bandpp         192
 size(cprjin)        5952
 hamk%natom          31
 my_nspinor           1
 ndat         192
 size(cprjin)        5952
 hamk%natom          31
 my_nspinor           1
 ndat         192
 flag_inv_sym 2
 bandpp         192
 size(cprjin)        5952
 hamk%natom          31
 my_nspinor           1
 ndat         192
 size(cprjin)        5952
 hamk%natom          31
 my_nspinor           1
 ndat         192
 flag_inv_sym 2
 bandpp         192
 size(cprjin)        5952
 hamk%natom          31
 my_nspinor           1
 ndat         192
 size(cprjin)        5952
 hamk%natom          31
 my_nspinor           1
 ndat         192
 flag_inv_sym 2
 bandpp         192
 size(cprjin)        5952
 hamk%natom          31
 my_nspinor           1
 ndat         192
 size(cprjin)        5952
 hamk%natom          31
 my_nspinor           1
 ndat         192
 flag_inv_sym 2
 bandpp         192
 -2107312384
 X_swap AT THE END
 -1753015296
 ************************
 BITNI POINTERI
 xXcolsRows
 -2107312384
 X
 -2107312384
 X_next
 -2095371520
 X_prev
 -1753015296
 X_NP
 -2107312384
 ***********************
 xgx0 AFTER
 -1753015296
 size(cprjin)        5952
 hamk%natom          31
 my_nspinor           1
 ndat         192
 newocc: new Fermi energy is       0.408862 , with nelect=    310.000000, Number of bisection calls: 49
 newocc: computed new occ. numbers for occopt= 3 , spin-unpolarized case.
 2.000 2.000 2.000 2.000 2.000 2.000 2.000 2.000 2.000 2.000 2.000 2.000
 2.000 2.000 2.000 2.000 2.000 2.000 2.000 2.000 2.000 2.000 2.000 2.000
 2.000 2.000 2.000 2.000 2.000 2.000 2.000 2.000 2.000 2.000 2.000 2.000
 2.000 2.000 2.000 2.000 2.000 2.000 2.000 2.000 2.000 2.000 2.000 2.000
 2.000 2.000 2.000 2.000 2.000 2.000 2.000 2.000 2.000 2.000 2.000 2.000
 2.000 2.000 2.000 2.000 2.000 2.000 2.000 2.000 2.000 2.000 2.000 2.000
 2.000 2.000 2.000 2.000 2.000 2.000 2.000 2.000 2.000 2.000 2.000 2.000
 2.000 2.000 2.000 2.000 2.000 2.000 2.000 2.000 2.000 2.000 2.000 2.000
 2.000 2.000 2.000 2.000 2.000 2.000 2.000 2.000 2.000 2.000 2.000 2.000
 2.000 2.000 2.000 2.000 2.000 2.000 2.000 2.000 2.000 2.000 2.000 2.000
 2.000 2.000 2.000 2.000 2.000 2.000 2.000 2.000 2.000 2.000 2.000 2.000
 2.000 2.000 2.000 2.000 2.000 2.000 2.000 2.000 2.000 2.000 2.000 2.000
 2.000 2.000 2.000 2.000 2.000 1.999 1.998 1.985 1.962 1.624 1.461 0.697
 0.207 0.062 0.004 0.000 0.000 0.000 0.000 0.000 0.000 0.000 0.000 0.000
 0.000 0.000 0.000 0.000 0.000 0.000 0.000 0.000 0.000 0.000 0.000 0.000
 0.000 0.000 0.000 0.000 0.000 0.000 0.000 0.000 0.000 0.000 0.000 0.000
 mkrho: echo density (plane-wave part only)
 Total charge density [el/Bohr^3]
      Maximum=    4.5535E-01  at reduced coord.    0.0000    0.5250    0.5250
      Minimum=    6.7205E-03  at reduced coord.    0.0000    0.0000    0.0000
   Integrated=    3.9356E+02
 
 PAW TEST:
 ========= Values of RHOIJ before symetrization =========
 
 Atom #  1
   2.05243  -0.03568  -0.00594   0.00067   0.00807   0.00048   0.00009  -0.00113   0.02603   0.00292  -0.03905   0.00534 ...
  -0.03568   0.21098   0.00483  -0.00963  -0.00486   0.00029   0.00078   0.00119  -0.01119  -0.00742   0.00847   0.00019 ...
  -0.00594   0.00483   1.87144   0.00578   0.00796   0.01022  -0.00060  -0.00085  -0.00067   0.00305  -0.01289   0.00450 ...
   0.00067  -0.00963   0.00578   1.89519   0.00392  -0.00062   0.00766  -0.00035  -0.00373   0.00005  -0.00029  -0.00248 ...
   0.00807  -0.00486   0.00796   0.00392   1.87035  -0.00084  -0.00036   0.01031  -0.00266  -0.00775  -0.01495  -0.00460 ...
   0.00048   0.00029   0.01022  -0.00062  -0.00084   0.00156   0.00007   0.00001   0.00127  -0.00024   0.00061  -0.00044 ...
   0.00009   0.00078  -0.00060   0.00766  -0.00036   0.00007   0.00188   0.00003   0.00016  -0.00001   0.00002   0.00021 ...
  -0.00113   0.00119  -0.00085  -0.00035   0.01031   0.00001   0.00003   0.00155   0.00151   0.00096   0.00093   0.00063 ...
   0.02603  -0.01119  -0.00067  -0.00373  -0.00266   0.00127   0.00016   0.00151   0.41283   0.01568   0.03990  -0.00058 ...
   0.00292  -0.00742   0.00305   0.00005  -0.00775  -0.00024  -0.00001   0.00096   0.01568   0.45218  -0.01570  -0.02780 ...
  -0.03905   0.00847  -0.01289  -0.00029  -0.01495   0.00061   0.00002   0.00093   0.03990  -0.01570   0.54570  -0.01312 ...
   0.00534   0.00019   0.00450  -0.00248  -0.00460  -0.00044   0.00021   0.00063  -0.00058  -0.02780  -0.01312   0.46849 ...
   ...  only 12  components have been written...
 Atom # 31
   2.09205  -0.06202  -0.00372  -0.00737  -0.00260   0.00021   0.00066   0.00026  -0.00209  -0.01517   0.01179   0.00460 ...
  -0.06202   0.21756   0.00331   0.00578   0.01380   0.00028  -0.00015  -0.00153  -0.01689   0.01438  -0.03381  -0.02282 ...
  -0.00372   0.00331   1.85672  -0.00099  -0.00658   0.01146   0.00005   0.00067   0.00783   0.00551  -0.01040   0.00282 ...
  -0.00737   0.00578  -0.00099   1.84784   0.00180   0.00004   0.01247  -0.00020   0.00516  -0.00162  -0.01074  -0.00507 ...
  -0.00260   0.01380  -0.00658   0.00180   1.87852   0.00069  -0.00010   0.00938   0.01223  -0.01290   0.01083   0.00010 ...
   0.00021   0.00028   0.01146   0.00004   0.00069   0.00167  -0.00005  -0.00007  -0.00098   0.00011   0.00057  -0.00038 ...
   0.00066  -0.00015   0.00005   0.01247  -0.00010  -0.00005   0.00156   0.00001  -0.00041   0.00074   0.00217   0.00036 ...
   0.00026  -0.00153   0.00067  -0.00020   0.00938  -0.00007   0.00001   0.00187  -0.00073   0.00131  -0.00100   0.00059 ...
  -0.00209  -0.01689   0.00783   0.00516   0.01223  -0.00098  -0.00041  -0.00073   0.49243  -0.00023   0.01017  -0.00648 ...
  -0.01517   0.01438   0.00551  -0.00162  -0.01290   0.00011   0.00074   0.00131  -0.00023   0.46425   0.00196   0.02045 ...
   0.01179  -0.03381  -0.01040  -0.01074   0.01083   0.00057   0.00217  -0.00100   0.01017   0.00196   0.57044   0.00678 ...
   0.00460  -0.02282   0.00282  -0.00507   0.00010  -0.00038   0.00036   0.00059  -0.00648   0.02045   0.00678   0.49661 ...
   ...  only 12  components have been written...
 
 
 PAW TEST:
 ========= Values of RHOIJ after symetrization =========
 
 Atom #  1
   2.05700  -0.03342   0.00367   0.00000   0.00367  -0.00053   0.00000  -0.00053   0.03018   0.00000  -0.05043   0.00000 ...
  -0.03342   0.19294  -0.00601   0.00000  -0.00601   0.00119   0.00000   0.00119  -0.02814   0.00000   0.03732   0.00000 ...
   0.00367  -0.00601   1.87313   0.00000   0.00920   0.00997   0.00000  -0.00104  -0.00440   0.00000  -0.01242   0.00000 ...
   0.00000   0.00000   0.00000   1.89839   0.00000   0.00000   0.00733   0.00000   0.00000  -0.00117   0.00000  -0.00117 ...
   0.00367  -0.00601   0.00920   0.00000   1.87313  -0.00104   0.00000   0.00997  -0.00440   0.00000  -0.01242   0.00000 ...
  -0.00053   0.00119   0.00997   0.00000  -0.00104   0.00159   0.00000   0.00003   0.00155   0.00000   0.00064   0.00000 ...
   0.00000   0.00000   0.00000   0.00733   0.00000   0.00000   0.00191   0.00000   0.00000   0.00019   0.00000   0.00019 ...
  -0.00053   0.00119  -0.00104   0.00000   0.00997   0.00003   0.00000   0.00159   0.00155   0.00000   0.00064   0.00000 ...
   0.03018  -0.02814  -0.00440   0.00000  -0.00440   0.00155   0.00000   0.00155   0.42171   0.00000   0.05213   0.00000 ...
   0.00000   0.00000   0.00000  -0.00117   0.00000   0.00000   0.00019   0.00000   0.00000   0.46660   0.00000  -0.02683 ...
  -0.05043   0.03732  -0.01242   0.00000  -0.01242   0.00064   0.00000   0.00064   0.05213   0.00000   0.53742   0.00000 ...
   0.00000   0.00000   0.00000  -0.00117   0.00000   0.00000   0.00019   0.00000   0.00000  -0.02683   0.00000   0.46660 ...
   ...  only 12  components have been written...
 Atom # 31
   2.07204  -0.03921  -0.00254  -0.00254   0.00000   0.00003   0.00003   0.00000   0.00000  -0.00593  -0.00389   0.00000 ...
  -0.03921   0.21648   0.00513   0.00513   0.00000   0.00003   0.00003   0.00000   0.00000  -0.00454  -0.00773   0.00000 ...
  -0.00254   0.00513   1.85338   0.00518   0.00000   0.01183  -0.00058   0.00000   0.00000   0.00719  -0.00910   0.00000 ...
  -0.00254   0.00513   0.00518   1.85338   0.00000  -0.00058   0.01183   0.00000   0.00000   0.00719   0.00102   0.00000 ...
   0.00000   0.00000   0.00000   0.00000   1.87785   0.00000   0.00000   0.00946  -0.00193   0.00000   0.00000  -0.00193 ...
[...]
                      -2.5538806064E-02  2.5538806064E-02  5.5958821803E-20
                       6.2133660171E-03 -1.6787646542E-19  6.2133660171E-03
                       5.5958821805E-20  2.5538806064E-02 -2.5538806064E-02
                       5.5958821806E-20 -1.6787646542E-19  5.5958821806E-20
                       6.2133660171E-03 -6.2133660171E-03  5.5958821807E-20
                       6.2133660171E-03 -1.6787646542E-19 -6.2133660171E-03
                       5.5958821806E-20  2.5538806064E-02  2.5538806064E-02
                       5.5958821806E-20 -1.6787646542E-19  5.5958821806E-20
                       2.5538806064E-02 -2.5538806064E-02  5.5958821805E-20
                       2.5538806064E-02 -1.6787646541E-19 -2.5538806064E-02
                       5.5958821803E-20  6.2133660171E-03  6.2133660171E-03
                       5.5958821806E-20 -1.6787646542E-19  5.5958821806E-20
                      -6.2133660171E-03  6.2133660171E-03  5.5958821804E-20
                       2.5538806064E-02 -1.6787646542E-19  2.5538806064E-02
                       5.5958821808E-20  6.2133660171E-03 -6.2133660171E-03
                       5.5958821806E-20 -1.6787646542E-19  5.5958821806E-20
                       2.5538806064E-02  2.5538806064E-02  5.5958821806E-20
                      -6.2133660171E-03 -1.6787646541E-19  6.2133660171E-03
                       5.5958821803E-20 -6.2133660171E-03  6.2133660171E-03
                       5.5958821806E-20 -1.6787646542E-19  5.5958821806E-20
                      -6.2133660171E-03 -6.2133660171E-03  5.5958821806E-20
                      -6.2133660171E-03 -1.6787646542E-19 -6.2133660171E-03
                       5.5958821808E-20 -6.2133660171E-03 -6.2133660171E-03
-          fftalg         312
           istwfk        1
              ixc           7
           kptopt           0
P           mkmem           1
            natom          31
            nband         192
            ngfft          40      40      40
          ngfftdg          45      45      45
             nkpt           1
            nstep          40
             nsym          48
           ntypat           1
              occ      2.000000  2.000000  2.000000  2.000000  2.000000  2.000000
                       2.000000  2.000000  2.000000  2.000000  2.000000  2.000000
                       2.000000  2.000000  2.000000  2.000000  2.000000  2.000000
                       2.000000  2.000000  2.000000  2.000000  2.000000  2.000000
                       2.000000  2.000000  2.000000  2.000000  2.000000  2.000000
                       2.000000  2.000000  2.000000  2.000000  2.000000  2.000000
                       2.000000  2.000000  2.000000  2.000000  2.000000  2.000000
                       2.000000  2.000000  2.000000  2.000000  2.000000  2.000000
                       2.000000  2.000000  2.000000  2.000000  2.000000  2.000000
                       2.000000  2.000000  2.000000  2.000000  2.000000  2.000000
                       2.000000  2.000000  2.000000  2.000000  2.000000  2.000000
                       2.000000  2.000000  2.000000  2.000000  2.000000  2.000000
                       2.000000  2.000000  2.000000  2.000000  2.000000  2.000000
                       2.000000  2.000000  2.000000  2.000000  2.000000  2.000000
                       2.000000  2.000000  2.000000  2.000000  2.000000  2.000000
                       2.000000  2.000000  2.000000  2.000000  2.000000  2.000000
                       2.000000  2.000000  2.000000  2.000000  2.000000  2.000000
                       2.000000  2.000000  2.000000  2.000000  2.000000  2.000000
                       2.000000  2.000000  2.000000  2.000000  2.000000  2.000000
                       2.000000  2.000000  2.000000  2.000000  2.000000  2.000000
                       2.000000  2.000000  2.000000  2.000000  2.000000  2.000000
                       2.000000  2.000000  2.000000  2.000000  2.000000  2.000000
                       2.000000  2.000000  2.000000  2.000000  2.000000  1.999998
                       1.999998  1.999998  1.999990  1.996321  1.996321  1.996321
                       1.989040  1.989040  1.971578  1.971577  1.971577  1.911842
                       1.893588  1.893586  1.893585  0.824565  0.824563  0.647908
                       0.647905  0.647898  0.309645  0.309641  0.309638  0.003875
                       0.000000  0.000000  0.000000  0.000000  0.000000  0.000000
                       0.000000  0.000000  0.000000  0.000000  0.000000  0.000000
                       0.000000  0.000000  0.000000  0.000000  0.000000  0.000000
                       0.000000  0.000000  0.000000  0.000000  0.000000  0.000000
                       0.000000  0.000000  0.000000  0.000000  0.000000  0.000000
           occopt           3
        paral_kgb           1
        pawecutdg      1.00000000E+01 Hartree
           prtden           0
           prteig           0
            prtwf           0
          spgroup         221
           strten     -4.3362928147E-03 -4.3362928147E-03 -4.3362928147E-03
                       0.0000000000E+00  0.0000000000E+00  0.0000000000E+00
           symrel      1  0  0   0  1  0   0  0  1      -1  0  0   0 -1  0   0  0 -1
                      -1  0  0   0  1  0   0  0 -1       1  0  0   0 -1  0   0  0  1
                      -1  0  0   0 -1  0   0  0  1       1  0  0   0  1  0   0  0 -1
                       1  0  0   0 -1  0   0  0 -1      -1  0  0   0  1  0   0  0  1
                       0  1  0   1  0  0   0  0  1       0 -1  0  -1  0  0   0  0 -1
                       0 -1  0   1  0  0   0  0 -1       0  1  0  -1  0  0   0  0  1
                       0 -1  0  -1  0  0   0  0  1       0  1  0   1  0  0   0  0 -1
                       0  1  0  -1  0  0   0  0 -1       0 -1  0   1  0  0   0  0  1
                       0  0  1   1  0  0   0  1  0       0  0 -1  -1  0  0   0 -1  0
                       0  0 -1   1  0  0   0 -1  0       0  0  1  -1  0  0   0  1  0
                       0  0 -1  -1  0  0   0  1  0       0  0  1   1  0  0   0 -1  0
                       0  0  1  -1  0  0   0 -1  0       0  0 -1   1  0  0   0  1  0
                       1  0  0   0  0  1   0  1  0      -1  0  0   0  0 -1   0 -1  0
                      -1  0  0   0  0  1   0 -1  0       1  0  0   0  0 -1   0  1  0
                      -1  0  0   0  0 -1   0  1  0       1  0  0   0  0  1   0 -1  0
                       1  0  0   0  0 -1   0 -1  0      -1  0  0   0  0  1   0  1  0
                       0  1  0   0  0  1   1  0  0       0 -1  0   0  0 -1  -1  0  0
                       0 -1  0   0  0  1  -1  0  0       0  1  0   0  0 -1   1  0  0
                       0 -1  0   0  0 -1   1  0  0       0  1  0   0  0  1  -1  0  0
                       0  1  0   0  0 -1  -1  0  0       0 -1  0   0  0  1   1  0  0
                       0  0  1   0  1  0   1  0  0       0  0 -1   0 -1  0  -1  0  0
                       0  0 -1   0  1  0  -1  0  0       0  0  1   0 -1  0   1  0  0
                       0  0 -1   0 -1  0   1  0  0       0  0  1   0  1  0  -1  0  0
                       0  0  1   0 -1  0  -1  0  0       0  0 -1   0  1  0   1  0  0
           timopt          -3
           toldfe      1.00000000E-05 Hartree
           tsmear      2.00000000E-03 Hartree
            typat      1  1  1  1  1  1  1  1  1  1  1  1  1  1  1  1  1  1  1  1
                       1  1  1  1  1  1  1  1  1  1  1
           useylm           1
         wfoptalg         111
           xangst      2.0293945949E+00  2.0293945949E+00  0.0000000000E+00
                       2.0293945949E+00  0.0000000000E+00  2.0293945949E+00
                       0.0000000000E+00  2.0293945949E+00  2.0293945949E+00
                       0.0000000000E+00  0.0000000000E+00  4.0587891899E+00
                       2.0293945949E+00  2.0293945949E+00  4.0587891899E+00
                       2.0293945949E+00  0.0000000000E+00  6.0881837848E+00
                       0.0000000000E+00  2.0293945949E+00  6.0881837848E+00
                       0.0000000000E+00  4.0587891899E+00  0.0000000000E+00
                       2.0293945949E+00  6.0881837848E+00  0.0000000000E+00
                       2.0293945949E+00  4.0587891899E+00  2.0293945949E+00
                       0.0000000000E+00  6.0881837848E+00  2.0293945949E+00
                       0.0000000000E+00  4.0587891899E+00  4.0587891899E+00
                       2.0293945949E+00  6.0881837848E+00  4.0587891899E+00
                       2.0293945949E+00  4.0587891899E+00  6.0881837848E+00
                       0.0000000000E+00  6.0881837848E+00  6.0881837848E+00
                       4.0587891899E+00  0.0000000000E+00  0.0000000000E+00
                       6.0881837848E+00  2.0293945949E+00  0.0000000000E+00
                       6.0881837848E+00  0.0000000000E+00  2.0293945949E+00
                       4.0587891899E+00  2.0293945949E+00  2.0293945949E+00
                       4.0587891899E+00  0.0000000000E+00  4.0587891899E+00
                       6.0881837848E+00  2.0293945949E+00  4.0587891899E+00
                       6.0881837848E+00  0.0000000000E+00  6.0881837848E+00
                       4.0587891899E+00  2.0293945949E+00  6.0881837848E+00
                       4.0587891899E+00  4.0587891899E+00  0.0000000000E+00
                       6.0881837848E+00  6.0881837848E+00  0.0000000000E+00
                       6.0881837848E+00  4.0587891899E+00  2.0293945949E+00
                       4.0587891899E+00  6.0881837848E+00  2.0293945949E+00
                       4.0587891899E+00  4.0587891899E+00  4.0587891899E+00
                       6.0881837848E+00  6.0881837848E+00  4.0587891899E+00
                       6.0881837848E+00  4.0587891899E+00  6.0881837848E+00
                       4.0587891899E+00  6.0881837848E+00  6.0881837848E+00
            xcart      3.8350000000E+00  3.8350000000E+00  0.0000000000E+00
                       3.8350000000E+00  0.0000000000E+00  3.8350000000E+00
                       0.0000000000E+00  3.8350000000E+00  3.8350000000E+00
                       0.0000000000E+00  0.0000000000E+00  7.6700000000E+00
                       3.8350000000E+00  3.8350000000E+00  7.6700000000E+00
                       3.8350000000E+00  0.0000000000E+00  1.1505000000E+01
                       0.0000000000E+00  3.8350000000E+00  1.1505000000E+01
                       0.0000000000E+00  7.6700000000E+00  0.0000000000E+00
                       3.8350000000E+00  1.1505000000E+01  0.0000000000E+00
                       3.8350000000E+00  7.6700000000E+00  3.8350000000E+00
                       0.0000000000E+00  1.1505000000E+01  3.8350000000E+00
                       0.0000000000E+00  7.6700000000E+00  7.6700000000E+00
                       3.8350000000E+00  1.1505000000E+01  7.6700000000E+00
                       3.8350000000E+00  7.6700000000E+00  1.1505000000E+01
                       0.0000000000E+00  1.1505000000E+01  1.1505000000E+01
                       7.6700000000E+00  0.0000000000E+00  0.0000000000E+00
                       1.1505000000E+01  3.8350000000E+00  0.0000000000E+00
                       1.1505000000E+01  0.0000000000E+00  3.8350000000E+00
                       7.6700000000E+00  3.8350000000E+00  3.8350000000E+00
                       7.6700000000E+00  0.0000000000E+00  7.6700000000E+00
                       1.1505000000E+01  3.8350000000E+00  7.6700000000E+00
                       1.1505000000E+01  0.0000000000E+00  1.1505000000E+01
                       7.6700000000E+00  3.8350000000E+00  1.1505000000E+01
                       7.6700000000E+00  7.6700000000E+00  0.0000000000E+00
                       1.1505000000E+01  1.1505000000E+01  0.0000000000E+00
                       1.1505000000E+01  7.6700000000E+00  3.8350000000E+00
                       7.6700000000E+00  1.1505000000E+01  3.8350000000E+00
                       7.6700000000E+00  7.6700000000E+00  7.6700000000E+00
                       1.1505000000E+01  1.1505000000E+01  7.6700000000E+00
                       1.1505000000E+01  7.6700000000E+00  1.1505000000E+01
                       7.6700000000E+00  1.1505000000E+01  1.1505000000E+01
             xred      2.5000000000E-01  2.5000000000E-01  0.0000000000E+00
                       2.5000000000E-01  0.0000000000E+00  2.5000000000E-01
                       0.0000000000E+00  2.5000000000E-01  2.5000000000E-01
                       0.0000000000E+00  0.0000000000E+00  5.0000000000E-01
                       2.5000000000E-01  2.5000000000E-01  5.0000000000E-01
                       2.5000000000E-01  0.0000000000E+00  7.5000000000E-01
                       0.0000000000E+00  2.5000000000E-01  7.5000000000E-01
                       0.0000000000E+00  5.0000000000E-01  0.0000000000E+00
                       2.5000000000E-01  7.5000000000E-01  0.0000000000E+00
                       2.5000000000E-01  5.0000000000E-01  2.5000000000E-01
                       0.0000000000E+00  7.5000000000E-01  2.5000000000E-01
                       0.0000000000E+00  5.0000000000E-01  5.0000000000E-01
                       2.5000000000E-01  7.5000000000E-01  5.0000000000E-01
                       2.5000000000E-01  5.0000000000E-01  7.5000000000E-01
                       0.0000000000E+00  7.5000000000E-01  7.5000000000E-01
                       5.0000000000E-01  0.0000000000E+00  0.0000000000E+00
                       7.5000000000E-01  2.5000000000E-01  0.0000000000E+00
                       7.5000000000E-01  0.0000000000E+00  2.5000000000E-01
                       5.0000000000E-01  2.5000000000E-01  2.5000000000E-01
                       5.0000000000E-01  0.0000000000E+00  5.0000000000E-01
                       7.5000000000E-01  2.5000000000E-01  5.0000000000E-01
                       7.5000000000E-01  0.0000000000E+00  7.5000000000E-01
                       5.0000000000E-01  2.5000000000E-01  7.5000000000E-01
                       5.0000000000E-01  5.0000000000E-01  0.0000000000E+00
                       7.5000000000E-01  7.5000000000E-01  0.0000000000E+00
                       7.5000000000E-01  5.0000000000E-01  2.5000000000E-01
                       5.0000000000E-01  7.5000000000E-01  2.5000000000E-01
                       5.0000000000E-01  5.0000000000E-01  5.0000000000E-01
                       7.5000000000E-01  7.5000000000E-01  5.0000000000E-01
                       7.5000000000E-01  5.0000000000E-01  7.5000000000E-01
                       5.0000000000E-01  7.5000000000E-01  7.5000000000E-01
            znucl       56.00000
 
================================================================================
  

================================================================================

 Suggested references for the acknowledgment of ABINIT usage.

 The users of ABINIT have little formal obligations with respect to the ABINIT group
 (those specified in the GNU General Public License, http://www.gnu.org/copyleft/gpl.txt).
 However, it is common practice in the scientific literature,
 to acknowledge the efforts of people that have made the research possible.
 In this spirit, please find below suggested citations of work written by ABINIT developers,
 corresponding to implementations inside of ABINIT that you have used in the present run.
 Note also that it will be of great value to readers of publications presenting these results,
 to read papers enabling them to understand the theoretical formalism and details
 of the ABINIT implementation.
 For information on why they are suggested, see also https://docs.abinit.org/theory/acknowledgments.
-
- [1] Implementation of the Projector Augmented-Wave Method in the ABINIT code.
- M. Torrent, F. Jollet, F. Bottin, G. Zerah, and X. Gonze Comput. Mat. Science 42, 337, (2008).
- Comment : PAW calculations. Strong suggestion to cite this paper.
- DOI and bibtex : see https://docs.abinit.org/theory/bibliography/#torrent2008
-
- [2] Recent developments in the ABINIT software package.
- Computer Phys. Comm. 205, 106 (2016).
- X.Gonze, F.Jollet, F.Abreu Araujo, D.Adams, B.Amadon, T.Applencourt,
- C.Audouze, J.-M.Beuken, J.Bieder, A.Bokhanchuk, E.Bousquet, F.Bruneval
- D.Caliste, M.Cote, F.Dahm, F.Da Pieve, M.Delaveau, M.Di Gennaro,
- B.Dorado, C.Espejo, G.Geneste, L.Genovese, A.Gerossier, M.Giantomassi,
- Y.Gillet, D.R.Hamann, L.He, G.Jomard, J.Laflamme Janssen, S.Le Roux,
- A.Levitt, A.Lherbier, F.Liu, I.Lukacevic, A.Martin, C.Martins,
- M.J.T.Oliveira, S.Ponce, Y.Pouillon, T.Rangel, G.-M.Rignanese,
- A.H.Romero, B.Rousseau, O.Rubel, A.A.Shukri, M.Stankovski, M.Torrent,
- M.J.Van Setten, B.Van Troeye, M.J.Verstraete, D.Waroquier, J.Wiktor,
- B.Xu, A.Zhou, J.W.Zwanziger.
- Comment : the fourth generic paper describing the ABINIT project.
- Note that a version of this paper, that is not formatted for Computer Phys. Comm. 
- is available at https://www.abinit.org/about/ABINIT16.pdf .
- The licence allows the authors to put it on the Web.
- DOI and bibtex : see https://docs.abinit.org/theory/bibliography/#gonze2016
-
- [3] ABINIT : First-principles approach of materials and nanosystem properties.
- Computer Phys. Comm. 180, 2582-2615 (2009).
- X. Gonze, B. Amadon, P.-M. Anglade, J.-M. Beuken, F. Bottin, P. Boulanger, F. Bruneval,
- D. Caliste, R. Caracas, M. Cote, T. Deutsch, L. Genovese, Ph. Ghosez, M. Giantomassi
- S. Goedecker, D.R. Hamann, P. Hermet, F. Jollet, G. Jomard, S. Leroux, M. Mancini, S. Mazevet,
- M.J.T. Oliveira, G. Onida, Y. Pouillon, T. Rangel, G.-M. Rignanese, D. Sangalli, R. Shaltaf,
- M. Torrent, M.J. Verstraete, G. Zerah, J.W. Zwanziger
- Comment : the third generic paper describing the ABINIT project.
- Note that a version of this paper, that is not formatted for Computer Phys. Comm. 
- is available at https://www.abinit.org/about/ABINIT_CPC_v10.pdf .
- The licence allows the authors to put it on the Web.
- DOI and bibtex : see https://docs.abinit.org/theory/bibliography/#gonze2009
-
- [4] A brief introduction to the ABINIT software package.
- Z. Kristallogr. 220, 558-562 (2005).
- X. Gonze, G.-M. Rignanese, M. Verstraete, J.-M. Beuken, Y. Pouillon, R. Caracas, F. Jollet,
- M. Torrent, G. Zerah, M. Mikami, Ph. Ghosez, M. Veithen, J.-Y. Raty, V. Olevano, F. Bruneval,
- L. Reining, R. Godby, G. Onida, D.R. Hamann, and D.C. Allan.
- Comment : the second generic paper describing the ABINIT project. Note that this paper
- should be cited especially if you are using the GW part of ABINIT, as several authors
- of this part are not in the list of authors of the first or third paper.
- The .pdf of the latter paper is available at https://www.abinit.org/about/zfk_0505-06_558-562.pdf.
- Note that it should not redistributed (Copyright by Oldenburg Wissenshaftverlag,
- the licence allows the authors to put it on the Web).
- DOI and bibtex : see https://docs.abinit.org/theory/bibliography/#gonze2005
-
- And optionally:
-
- [5] First-principles computation of material properties : the ABINIT software project. 
- X. Gonze, J.-M. Beuken, R. Caracas, F. Detraux, M. Fuchs, G.-M. Rignanese, L. Sindic,
- M. Verstraete, G. Zerah, F. Jollet, M. Torrent, A. Roy, M. Mikami, Ph. Ghosez, J.-Y. Raty, D.C. Allan.
- Computational Materials Science 25, 478-492 (2002). http://dx.doi.org/10.1016/S0927-0256(02)00325-7
- Comment : the original paper describing the ABINIT project.
- DOI and bibtex : see https://docs.abinit.org/theory/bibliography/#gonze2002
 Proc.   0 individual time (sec): cpu=       1127.2  wall=        302.0
 
 Calculation completed.
.Delivered   0 WARNINGs and   3 COMMENTs to log file.

--- !FinalSummary
program: abinit
version: 8.11.8
start_datetime: Fri Jun 21 14:07:07 2019
end_datetime: Fri Jun 21 14:12:09 2019
overall_cpu_time:        1127.2
overall_wall_time:         302.0
exit_requested_by_user: no 
timelimit: 0
pseudos: 
    Ba  : ce3b7093966dc4149014117c18eb5b71
usepaw: 1
mpi_procs: 1
omp_threads: 4
num_warnings: 0
num_comments: 3
...
