
.Version 8.11.8 of ABINIT 
.(MPI version, prepared for a x86_64_linux_intel19.0 computer) 

.Copyright (C) 1998-2019 ABINIT group . 
 ABINIT comes with ABSOLUTELY NO WARRANTY.
 It is free software, and you are welcome to redistribute it
 under certain conditions (GNU General Public License,
 see ~abinit/COPYING or http://www.gnu.org/copyleft/gpl.txt).

 ABINIT is a project of the Universite Catholique de Louvain,
 Corning Inc. and other collaborators, see ~abinit/doc/developers/contributors.txt .
 Please read https://docs.abinit.org/theory/acknowledgments for suggested
 acknowledgments of the ABINIT effort.
 For more information, see https://www.abinit.org .

.Starting date : Fri 21 Jun 2019.
- ( at 12h56 )
  
- input  file    -> t03.in
- output file    -> t03_x.out
- root for input  files -> t03_xi
- root for output files -> t03_xo
 
- inpspheads : Reading pseudopotential header in XML form from ../../../Psps_for_tests/ba.hpc.paw.xml
 
 Symmetries : space group Pm -3 m (#221); Bravais cP (primitive cubic)
================================================================================
 Values of the parameters that define the memory need of the present run
     intxc =       0    ionmov =       0      iscf =      17    lmnmax =      18
     lnmax =       6     mgfft =      40  mpssoang =       3    mqgrid =    3001
     natom =      31  nloc_mem =       2    nspden =       1   nspinor =       1
    nsppol =       1      nsym =      48    n1xccc =       1    ntypat =       1
    occopt =       3   xclevel =       1
-    mband =         192        mffmem =           1         mkmem =           1
       mpw =        3887          nfft =       64000          nkpt =           1
 PAW method is used; the additional fine FFT grid is defined by:
   mgfftf=        45    nfftf =     91125
================================================================================
P This job should need less than                      83.897 Mbytes of memory.
  Rough estimation (10% accuracy) of disk space for files :
_ WF disk file :     11.390 Mbytes ; DEN or POT disk file :      0.697 Mbytes.
================================================================================
 
--------------------------------------------------------------------------------
------------- Echo of variables that govern the present computation ------------
--------------------------------------------------------------------------------
-
- outvars: echo of selected default values                                      
-   iomode0 =  0 , fftalg0 =312 , wfoptalg0 = 10
-
- outvars: echo of global parameters not present in the input file              
-  max_nthreads =    4
-
 -outvars: echo values of preprocessed input variables --------
-          iomode           1
            acell      1.5340000000E+01  1.5340000000E+01  1.5340000000E+01 Bohr
              amu      1.37327000E+02
           bandpp         192
      chksymbreak           0
     densfor_pred           6
             ecut      8.00000000E+00 Hartree
-          fftalg         312
           istwfk        1
              ixc           7
           kptopt           0
P           mkmem           1
            natom          31
            nband         192
            ngfft          40      40      40
          ngfftdg          45      45      45
             nkpt           1
            nstep          40
             nsym          48
           ntypat           1
              occ      2.000000  2.000000  2.000000  2.000000  2.000000  2.000000
                       2.000000  2.000000  2.000000  2.000000  2.000000  2.000000
                       2.000000  2.000000  2.000000  2.000000  2.000000  2.000000
                       2.000000  2.000000  2.000000  2.000000  2.000000  2.000000
                       2.000000  2.000000  2.000000  2.000000  2.000000  2.000000
                       2.000000  2.000000  2.000000  2.000000  2.000000  2.000000
                       2.000000  2.000000  2.000000  2.000000  2.000000  2.000000
                       2.000000  2.000000  2.000000  2.000000  2.000000  2.000000
                       2.000000  2.000000  2.000000  2.000000  2.000000  2.000000
                       2.000000  2.000000  2.000000  2.000000  2.000000  2.000000
                       2.000000  2.000000  2.000000  2.000000  2.000000  2.000000
                       2.000000  2.000000  2.000000  2.000000  2.000000  2.000000
                       2.000000  2.000000  2.000000  2.000000  2.000000  2.000000
                       2.000000  2.000000  2.000000  2.000000  2.000000  2.000000
                       2.000000  2.000000  2.000000  2.000000  2.000000  2.000000
                       2.000000  2.000000  2.000000  2.000000  2.000000  2.000000
                       2.000000  2.000000  2.000000  2.000000  2.000000  2.000000
                       2.000000  2.000000  2.000000  2.000000  2.000000  2.000000
                       2.000000  2.000000  2.000000  2.000000  2.000000  2.000000
                       2.000000  2.000000  2.000000  2.000000  2.000000  2.000000
                       2.000000  2.000000  2.000000  2.000000  2.000000  2.000000
                       2.000000  2.000000  2.000000  2.000000  2.000000  2.000000
                       2.000000  2.000000  2.000000  2.000000  2.000000  2.000000
                       2.000000  2.000000  2.000000  2.000000  2.000000  2.000000
                       2.000000  2.000000  2.000000  2.000000  2.000000  2.000000
                       2.000000  2.000000  2.000000  2.000000  2.000000  0.000000
                       0.000000  0.000000  0.000000  0.000000  0.000000  0.000000
                       0.000000  0.000000  0.000000  0.000000  0.000000  0.000000
                       0.000000  0.000000  0.000000  0.000000  0.000000  0.000000
                       0.000000  0.000000  0.000000  0.000000  0.000000  0.000000
                       0.000000  0.000000  0.000000  0.000000  0.000000  0.000000
                       0.000000  0.000000  0.000000  0.000000  0.000000  0.000000
           occopt           3
        paral_kgb           1
        pawecutdg      1.00000000E+01 Hartree
           prtden           0
           prteig           0
            prtwf           0
          spgroup         221
           symrel      1  0  0   0  1  0   0  0  1      -1  0  0   0 -1  0   0  0 -1
                      -1  0  0   0  1  0   0  0 -1       1  0  0   0 -1  0   0  0  1
                      -1  0  0   0 -1  0   0  0  1       1  0  0   0  1  0   0  0 -1
                       1  0  0   0 -1  0   0  0 -1      -1  0  0   0  1  0   0  0  1
                       0  1  0   1  0  0   0  0  1       0 -1  0  -1  0  0   0  0 -1
                       0 -1  0   1  0  0   0  0 -1       0  1  0  -1  0  0   0  0  1
                       0 -1  0  -1  0  0   0  0  1       0  1  0   1  0  0   0  0 -1
                       0  1  0  -1  0  0   0  0 -1       0 -1  0   1  0  0   0  0  1
                       0  0  1   1  0  0   0  1  0       0  0 -1  -1  0  0   0 -1  0
                       0  0 -1   1  0  0   0 -1  0       0  0  1  -1  0  0   0  1  0
                       0  0 -1  -1  0  0   0  1  0       0  0  1   1  0  0   0 -1  0
                       0  0  1  -1  0  0   0 -1  0       0  0 -1   1  0  0   0  1  0
                       1  0  0   0  0  1   0  1  0      -1  0  0   0  0 -1   0 -1  0
                      -1  0  0   0  0  1   0 -1  0       1  0  0   0  0 -1   0  1  0
                      -1  0  0   0  0 -1   0  1  0       1  0  0   0  0  1   0 -1  0
                       1  0  0   0  0 -1   0 -1  0      -1  0  0   0  0  1   0  1  0
                       0  1  0   0  0  1   1  0  0       0 -1  0   0  0 -1  -1  0  0
                       0 -1  0   0  0  1  -1  0  0       0  1  0   0  0 -1   1  0  0
                       0 -1  0   0  0 -1   1  0  0       0  1  0   0  0  1  -1  0  0
                       0  1  0   0  0 -1  -1  0  0       0 -1  0   0  0  1   1  0  0
                       0  0  1   0  1  0   1  0  0       0  0 -1   0 -1  0  -1  0  0
                       0  0 -1   0  1  0  -1  0  0       0  0  1   0 -1  0   1  0  0
                       0  0 -1   0 -1  0   1  0  0       0  0  1   0  1  0  -1  0  0
                       0  0  1   0 -1  0  -1  0  0       0  0 -1   0  1  0   1  0  0
           timopt          -3
           toldfe      1.00000000E-05 Hartree
           tsmear      2.00000000E-03 Hartree
            typat      1  1  1  1  1  1  1  1  1  1  1  1  1  1  1  1  1  1  1  1
                       1  1  1  1  1  1  1  1  1  1  1
           useylm           1
         wfoptalg         111
           xangst      2.0293945949E+00  2.0293945949E+00  0.0000000000E+00
                       2.0293945949E+00  0.0000000000E+00  2.0293945949E+00
                       0.0000000000E+00  2.0293945949E+00  2.0293945949E+00
                       0.0000000000E+00  0.0000000000E+00  4.0587891899E+00
                       2.0293945949E+00  2.0293945949E+00  4.0587891899E+00
                       2.0293945949E+00  0.0000000000E+00  6.0881837848E+00
                       0.0000000000E+00  2.0293945949E+00  6.0881837848E+00
                       0.0000000000E+00  4.0587891899E+00  0.0000000000E+00
                       2.0293945949E+00  6.0881837848E+00  0.0000000000E+00
                       2.0293945949E+00  4.0587891899E+00  2.0293945949E+00
                       0.0000000000E+00  6.0881837848E+00  2.0293945949E+00
                       0.0000000000E+00  4.0587891899E+00  4.0587891899E+00
                       2.0293945949E+00  6.0881837848E+00  4.0587891899E+00
                       2.0293945949E+00  4.0587891899E+00  6.0881837848E+00
                       0.0000000000E+00  6.0881837848E+00  6.0881837848E+00
                       4.0587891899E+00  0.0000000000E+00  0.0000000000E+00
                       6.0881837848E+00  2.0293945949E+00  0.0000000000E+00
                       6.0881837848E+00  0.0000000000E+00  2.0293945949E+00
                       4.0587891899E+00  2.0293945949E+00  2.0293945949E+00
                       4.0587891899E+00  0.0000000000E+00  4.0587891899E+00
                       6.0881837848E+00  2.0293945949E+00  4.0587891899E+00
                       6.0881837848E+00  0.0000000000E+00  6.0881837848E+00
                       4.0587891899E+00  2.0293945949E+00  6.0881837848E+00
                       4.0587891899E+00  4.0587891899E+00  0.0000000000E+00
                       6.0881837848E+00  6.0881837848E+00  0.0000000000E+00
                       6.0881837848E+00  4.0587891899E+00  2.0293945949E+00
                       4.0587891899E+00  6.0881837848E+00  2.0293945949E+00
                       4.0587891899E+00  4.0587891899E+00  4.0587891899E+00
                       6.0881837848E+00  6.0881837848E+00  4.0587891899E+00
                       6.0881837848E+00  4.0587891899E+00  6.0881837848E+00
                       4.0587891899E+00  6.0881837848E+00  6.0881837848E+00
            xcart      3.8350000000E+00  3.8350000000E+00  0.0000000000E+00
                       3.8350000000E+00  0.0000000000E+00  3.8350000000E+00
                       0.0000000000E+00  3.8350000000E+00  3.8350000000E+00
                       0.0000000000E+00  0.0000000000E+00  7.6700000000E+00
                       3.8350000000E+00  3.8350000000E+00  7.6700000000E+00
                       3.8350000000E+00  0.0000000000E+00  1.1505000000E+01
                       0.0000000000E+00  3.8350000000E+00  1.1505000000E+01
                       0.0000000000E+00  7.6700000000E+00  0.0000000000E+00
                       3.8350000000E+00  1.1505000000E+01  0.0000000000E+00
                       3.8350000000E+00  7.6700000000E+00  3.8350000000E+00
                       0.0000000000E+00  1.1505000000E+01  3.8350000000E+00
                       0.0000000000E+00  7.6700000000E+00  7.6700000000E+00
                       3.8350000000E+00  1.1505000000E+01  7.6700000000E+00
                       3.8350000000E+00  7.6700000000E+00  1.1505000000E+01
                       0.0000000000E+00  1.1505000000E+01  1.1505000000E+01
                       7.6700000000E+00  0.0000000000E+00  0.0000000000E+00
                       1.1505000000E+01  3.8350000000E+00  0.0000000000E+00
                       1.1505000000E+01  0.0000000000E+00  3.8350000000E+00
                       7.6700000000E+00  3.8350000000E+00  3.8350000000E+00
                       7.6700000000E+00  0.0000000000E+00  7.6700000000E+00
                       1.1505000000E+01  3.8350000000E+00  7.6700000000E+00
                       1.1505000000E+01  0.0000000000E+00  1.1505000000E+01
                       7.6700000000E+00  3.8350000000E+00  1.1505000000E+01
                       7.6700000000E+00  7.6700000000E+00  0.0000000000E+00
                       1.1505000000E+01  1.1505000000E+01  0.0000000000E+00
                       1.1505000000E+01  7.6700000000E+00  3.8350000000E+00
                       7.6700000000E+00  1.1505000000E+01  3.8350000000E+00
                       7.6700000000E+00  7.6700000000E+00  7.6700000000E+00
                       1.1505000000E+01  1.1505000000E+01  7.6700000000E+00
                       1.1505000000E+01  7.6700000000E+00  1.1505000000E+01
                       7.6700000000E+00  1.1505000000E+01  1.1505000000E+01
             xred      2.5000000000E-01  2.5000000000E-01  0.0000000000E+00
                       2.5000000000E-01  0.0000000000E+00  2.5000000000E-01
                       0.0000000000E+00  2.5000000000E-01  2.5000000000E-01
                       0.0000000000E+00  0.0000000000E+00  5.0000000000E-01
                       2.5000000000E-01  2.5000000000E-01  5.0000000000E-01
                       2.5000000000E-01  0.0000000000E+00  7.5000000000E-01
                       0.0000000000E+00  2.5000000000E-01  7.5000000000E-01
                       0.0000000000E+00  5.0000000000E-01  0.0000000000E+00
                       2.5000000000E-01  7.5000000000E-01  0.0000000000E+00
                       2.5000000000E-01  5.0000000000E-01  2.5000000000E-01
                       0.0000000000E+00  7.5000000000E-01  2.5000000000E-01
                       0.0000000000E+00  5.0000000000E-01  5.0000000000E-01
                       2.5000000000E-01  7.5000000000E-01  5.0000000000E-01
                       2.5000000000E-01  5.0000000000E-01  7.5000000000E-01
                       0.0000000000E+00  7.5000000000E-01  7.5000000000E-01
                       5.0000000000E-01  0.0000000000E+00  0.0000000000E+00
                       7.5000000000E-01  2.5000000000E-01  0.0000000000E+00
                       7.5000000000E-01  0.0000000000E+00  2.5000000000E-01
                       5.0000000000E-01  2.5000000000E-01  2.5000000000E-01
                       5.0000000000E-01  0.0000000000E+00  5.0000000000E-01
                       7.5000000000E-01  2.5000000000E-01  5.0000000000E-01
                       7.5000000000E-01  0.0000000000E+00  7.5000000000E-01
                       5.0000000000E-01  2.5000000000E-01  7.5000000000E-01
                       5.0000000000E-01  5.0000000000E-01  0.0000000000E+00
                       7.5000000000E-01  7.5000000000E-01  0.0000000000E+00
                       7.5000000000E-01  5.0000000000E-01  2.5000000000E-01
                       5.0000000000E-01  7.5000000000E-01  2.5000000000E-01
                       5.0000000000E-01  5.0000000000E-01  5.0000000000E-01
                       7.5000000000E-01  7.5000000000E-01  5.0000000000E-01
                       7.5000000000E-01  5.0000000000E-01  7.5000000000E-01
                       5.0000000000E-01  7.5000000000E-01  7.5000000000E-01
            znucl       56.00000
 
================================================================================
 
 chkinp: Checking input parameters for consistency.
 
================================================================================
== DATASET  1 ==================================================================
-   nproc =    1
 
 Exchange-correlation functional for the present dataset will be:
  LDA: Perdew-Wang 92 LSD fit to Ceperley-Alder data - ixc=7
 Citation for XC functional:
  J.P.Perdew and Y.Wang, PRB 45, 13244 (1992)
 
 Real(R)+Recip(G) space primitive vectors, cartesian coordinates (Bohr,Bohr^-1):
 R(1)= 15.3400000  0.0000000  0.0000000  G(1)=  0.0651890  0.0000000  0.0000000
 R(2)=  0.0000000 15.3400000  0.0000000  G(2)=  0.0000000  0.0651890  0.0000000
 R(3)=  0.0000000  0.0000000 15.3400000  G(3)=  0.0000000  0.0000000  0.0651890
 Unit cell volume ucvol=  3.6097413E+03 bohr^3
 Angles (23,13,12)=  9.00000000E+01  9.00000000E+01  9.00000000E+01 degrees
 
 Coarse grid specifications (used for wave-functions):
 
 getcut: wavevector=  0.0000  0.0000  0.0000  ngfft=  40  40  40
         ecut(hartree)=      8.000   => boxcut(ratio)=   2.04797
 
 Fine grid specifications (used for densities):
 
 getcut: wavevector=  0.0000  0.0000  0.0000  ngfft=  45  45  45
         ecut(hartree)=     10.000   => boxcut(ratio)=   2.01494
 
--- Pseudopotential description ------------------------------------------------
- pspini: atom type   1  psp file is ../../../Psps_for_tests/ba.hpc.paw.xml
- pspatm: opening atomic psp file    ../../../Psps_for_tests/ba.hpc.paw.xml
- pspatm : Reading pseudopotential header in XML form from ../../../Psps_for_tests/ba.hpc.paw.xml
 Pseudopotential format is: paw10
 basis_size (lnmax)=  6 (lmn_size= 18), orbitals=   0   0   1   1   2   2
 Spheres core radius: rc_sph= 2.31518568
 1 radial meshes are used:
  - mesh 1: r(i)=AA*[exp(BB*(i-1))-1], size=1500 , AA= 0.15658E-03 BB= 0.87685E-02
 Shapefunction is SIN type: shapef(r)=[sin(pi*r/rshp)/(pi*r/rshp)]**2
 Radius for shape functions =  2.01210979
 mmax= 1500
 Radial grid used for partial waves is grid 1
 Radial grid used for projectors is grid 1
 Radial grid used for (t)core density is grid 1
 Radial grid used for Vloc is grid 1
 Radial grid used for pseudo valence density is grid 1
 Mesh size for Vloc has been set to 1341 to avoid numerical noise.
 Compensation charge density is not taken into account in XC energy/potential
 pspatm: atomic psp has been read  and splines computed
 
   5.70955898E+05                                ecore*ucvol(ha*bohr**3)
--------------------------------------------------------------------------------
 
_setup2: Arith. and geom. avg. npw (full set) are    3887.000    3887.000
 
================================================================================
 
     iter   Etot(hartree)      deltaE(h)  residm     nres2
 ETOT  1  -790.61559369085    -7.906E+02 5.941E+00 1.131E+01
 ETOT  2  -798.88011571306    -8.265E+00 8.859E+00 1.582E+00
 ETOT  3  -800.01224795319    -1.132E+00 5.804E-01 3.816E-01
 ETOT  4  -800.04634455183    -3.410E-02 1.100E+01 2.911E-02
 ETOT  5  -800.35537922208    -3.090E-01 1.747E-01 1.050E-01
 ETOT  6  -800.35774009622    -2.361E-03 9.037E+00 7.294E-02
 ETOT  7  -800.41254033573    -5.480E-02 6.182E-01 8.494E-02
 ETOT  8  -800.40682171854     5.719E-03 1.166E+01 6.363E-02
 ETOT  9  -800.42310572454    -1.628E-02 1.013E-01 2.645E-02
 ETOT 10  -800.42362255635    -5.168E-04 7.598E+00 1.322E-02
 ETOT 11  -800.42620155084    -2.579E-03 1.244E+00 8.622E-03
 ETOT 12  -800.42541399385     7.876E-04 1.133E+01 3.963E-03
 ETOT 13  -800.42677548775    -1.361E-03 1.599E-01 9.595E-04
 ETOT 14  -800.42672935349     4.613E-05 8.736E+00 5.415E-04
 ETOT 15  -800.42698980741    -2.605E-04 7.340E-01 4.330E-05
 ETOT 16  -800.42693182229     5.799E-05 1.175E+01 6.603E-06
 ETOT 17  -800.42706613773    -1.343E-04 1.059E-01 5.746E-06
 ETOT 18  -800.42706220829     3.929E-06 7.544E+00 2.115E-06
 ETOT 19  -800.42708196781    -1.976E-05 1.273E+00 2.702E-06
 ETOT 20  -800.42707629492     5.673E-06 1.130E+01 5.052E-07
 ETOT 21  -800.42708854732    -1.225E-05 1.604E-01 1.882E-07
 ETOT 22  -800.42708760220     9.451E-07 8.813E+00 2.237E-08
 ETOT 23  -800.42709007356    -2.471E-06 7.019E-01 8.005E-08
 
 At SCF step   23, etot is converged : 
  for the second time, diff in etot=  2.471E-06 < toldfe=  1.000E-05
 
 Cartesian components of stress tensor (hartree/bohr^3)
  sigma(1 1)= -4.33629281E-03  sigma(3 2)=  0.00000000E+00
  sigma(2 2)= -4.33629281E-03  sigma(3 1)=  0.00000000E+00
  sigma(3 3)= -4.33629281E-03  sigma(2 1)=  0.00000000E+00
 
 Integrated electronic density in atomic spheres:
 ------------------------------------------------
 Atom  Sphere_radius  Integrated_density
    1        2.31519          7.04701348
    2        2.31519          7.04701348
    3        2.31519          7.04701348
    4        2.31519          6.96777062
    5        2.31519          7.10077643
    6        2.31519          7.04701348
    7        2.31519          7.04701348
    8        2.31519          6.96777062
    9        2.31519          7.04701348
   10        2.31519          7.10077643
   11        2.31519          7.04701348
   12        2.31519          7.03238194
   13        2.31519          7.10077643
   14        2.31519          7.10077643
   15        2.31519          7.04701348
   16        2.31519          6.96777062
   17        2.31519          7.04701348
   18        2.31519          7.04701348
   19        2.31519          7.10077643
   20        2.31519          7.03238194
   21        2.31519          7.10077643
   22        2.31519          7.04701348
   23        2.31519          7.10077643
   24        2.31519          7.03238194
   25        2.31519          7.04701348
   26        2.31519          7.10077643
   27        2.31519          7.10077643
   28        2.31519          7.11123655
   29        2.31519          7.10077643
   30        2.31519          7.10077643
   31        2.31519          7.10077643
 
 PAW TEST:
 ==== Compensation charge inside spheres ============
 The following values must be close to each other ...
 Compensation charge over spherical meshes =    -83.807174924736415
 Compensation charge over fine fft grid    =    -83.807282996818586
 
 ==== Results concerning PAW augmentation regions ====
 
 Total pseudopotential strength Dij (hartree):
 Atom #  1
   0.41420   0.06332   0.00046   0.00000   0.00046   0.00011   0.00000   0.00011  -0.00012   0.00000   0.00003   0.00000 ...
   0.06332   0.00885   0.00010   0.00000   0.00010   0.00008   0.00000   0.00008  -0.00003   0.00000   0.00001   0.00000 ...
   0.00046   0.00010  -0.17382   0.00000  -0.00017   0.00055   0.00000  -0.00008   0.00018   0.00000  -0.00009   0.00000 ...
   0.00000   0.00000   0.00000  -0.17373   0.00000   0.00000   0.00062   0.00000   0.00000   0.00009   0.00000   0.00009 ...
   0.00046   0.00010  -0.00017   0.00000  -0.17382  -0.00008   0.00000   0.00055   0.00018   0.00000  -0.00009   0.00000 ...
   0.00011   0.00008   0.00055   0.00000  -0.00008  -1.14548   0.00000  -0.00024   0.00017   0.00000  -0.00008   0.00000 ...
   0.00000   0.00000   0.00000   0.00062   0.00000   0.00000  -1.14528   0.00000   0.00000   0.00007   0.00000   0.00007 ...
   0.00011   0.00008  -0.00008   0.00000   0.00055  -0.00024   0.00000  -1.14548   0.00017   0.00000  -0.00008   0.00000 ...
  -0.00012  -0.00003   0.00018   0.00000   0.00018   0.00017   0.00000   0.00017  -0.03054   0.00000   0.00002   0.00000 ...
   0.00000   0.00000   0.00000   0.00009   0.00000   0.00000   0.00007   0.00000   0.00000  -0.03053   0.00000  -0.00002 ...
   0.00003   0.00001  -0.00009   0.00000  -0.00009  -0.00008   0.00000  -0.00008   0.00002   0.00000  -0.03055   0.00000 ...
   0.00000   0.00000   0.00000   0.00009   0.00000   0.00000   0.00007   0.00000   0.00000  -0.00002   0.00000  -0.03053 ...
   ...  only 12  components have been written...
 Atom # 31
   0.41593   0.06360   0.00017   0.00017   0.00000  -0.00007  -0.00007   0.00000   0.00000  -0.00006  -0.00001   0.00000 ...
   0.06360   0.00890   0.00003   0.00003   0.00000  -0.00000  -0.00000   0.00000   0.00000  -0.00001  -0.00000   0.00000 ...
   0.00017   0.00003  -0.17307  -0.00008   0.00000   0.00077  -0.00004   0.00000   0.00000   0.00003  -0.00001   0.00000 ...
   0.00017   0.00003  -0.00008  -0.17307   0.00000  -0.00004   0.00077   0.00000   0.00000   0.00003   0.00003   0.00000 ...
   0.00000   0.00000   0.00000   0.00000  -0.17300   0.00000   0.00000   0.00083   0.00002   0.00000   0.00000   0.00002 ...
  -0.00007  -0.00000   0.00077  -0.00004   0.00000  -1.14463  -0.00010   0.00000   0.00000   0.00001   0.00001   0.00000 ...
  -0.00007  -0.00000  -0.00004   0.00077   0.00000  -0.00010  -1.14463   0.00000   0.00000   0.00001  -0.00000   0.00000 ...
   0.00000   0.00000   0.00000   0.00000   0.00083   0.00000   0.00000  -1.14454  -0.00001   0.00000   0.00000  -0.00001 ...
   0.00000   0.00000   0.00000   0.00000   0.00002   0.00000   0.00000  -0.00001  -0.03040   0.00000   0.00000  -0.00001 ...
  -0.00006  -0.00001   0.00003   0.00003   0.00000   0.00001   0.00001   0.00000   0.00000  -0.03042  -0.00001   0.00000 ...
  -0.00001  -0.00000  -0.00001   0.00003   0.00000   0.00001  -0.00000   0.00000   0.00000  -0.00001  -0.03044   0.00000 ...
   0.00000   0.00000   0.00000   0.00000   0.00002   0.00000   0.00000  -0.00001  -0.00001   0.00000   0.00000  -0.03040 ...
   ...  only 12  components have been written...
 
 
 Augmentation waves occupancies Rhoij:
 Atom #  1
   2.09432  -0.11960  -0.00175   0.00000  -0.00175  -0.00027   0.00000  -0.00027   0.01801   0.00000  -0.05589   0.00000 ...
  -0.11960   0.24817   0.00202   0.00000   0.00202   0.00129   0.00000   0.00129  -0.02370   0.00000   0.06528   0.00000 ...
  -0.00175   0.00202   1.86540   0.00000   0.01688   0.01083   0.00000  -0.00191   0.01055   0.00000  -0.02928   0.00000 ...
   0.00000   0.00000   0.00000   1.88629   0.00000   0.00000   0.00874   0.00000   0.00000   0.01240   0.00000   0.01240 ...
  -0.00175   0.00202   0.01688   0.00000   1.86540  -0.00191   0.00000   0.01083   0.01055   0.00000  -0.02928   0.00000 ...
  -0.00027   0.00129   0.01083   0.00000  -0.00191   0.00151   0.00000   0.00009   0.00057   0.00000   0.00213   0.00000 ...
   0.00000   0.00000   0.00000   0.00874   0.00000   0.00000   0.00183   0.00000   0.00000  -0.00033   0.00000  -0.00033 ...
  -0.00027   0.00129  -0.00191   0.00000   0.01083   0.00009   0.00000   0.00151   0.00057   0.00000   0.00213   0.00000 ...
   0.01801  -0.02370   0.01055   0.00000   0.01055   0.00057   0.00000   0.00057   0.43417   0.00000   0.02356   0.00000 ...
   0.00000   0.00000   0.00000   0.01240   0.00000   0.00000  -0.00033   0.00000   0.00000   0.44881   0.00000  -0.04514 ...
  -0.05589   0.06528  -0.02928   0.00000  -0.02928   0.00213   0.00000   0.00213   0.02356   0.00000   0.55717   0.00000 ...
   0.00000   0.00000   0.00000   0.01240   0.00000   0.00000  -0.00033   0.00000   0.00000  -0.04514   0.00000   0.44881 ...
   ...  only 12  components have been written...
 Atom # 31
   2.11787  -0.14743  -0.00122  -0.00122   0.00000   0.00000   0.00000   0.00000   0.00000  -0.00919  -0.00978   0.00000 ...
  -0.14743   0.28756   0.00219   0.00219   0.00000  -0.00018  -0.00018   0.00000   0.00000   0.00835   0.00923   0.00000 ...
  -0.00122   0.00219   1.85305   0.00729   0.00000   0.01216  -0.00075   0.00000   0.00000   0.00377  -0.00855   0.00000 ...
  -0.00122   0.00219   0.00729   1.85305   0.00000  -0.00075   0.01216   0.00000   0.00000   0.00377  -0.00162   0.00000 ...
   0.00000   0.00000   0.00000   0.00000   1.88140   0.00000   0.00000   0.00958  -0.01497   0.00000   0.00000  -0.01497 ...
   0.00000  -0.00018   0.01216  -0.00075   0.00000   0.00156   0.00004   0.00000   0.00000  -0.00017   0.00068   0.00000 ...
   0.00000  -0.00018  -0.00075   0.01216   0.00000   0.00004   0.00156   0.00000   0.00000  -0.00017   0.00057   0.00000 ...
   0.00000   0.00000   0.00000   0.00000   0.00958   0.00000   0.00000   0.00185   0.00167   0.00000   0.00000   0.00167 ...
   0.00000   0.00000   0.00000   0.00000  -0.01497   0.00000   0.00000   0.00167   0.49332   0.00000   0.00000  -0.03674 ...
  -0.00919   0.00835   0.00377   0.00377   0.00000  -0.00017  -0.00017   0.00000   0.00000   0.46382   0.01341   0.00000 ...
  -0.00978   0.00923  -0.00855  -0.00162   0.00000   0.00068   0.00057   0.00000   0.00000   0.01341   0.53504   0.00000 ...
   0.00000   0.00000   0.00000   0.00000  -0.01497   0.00000   0.00000   0.00167  -0.03674   0.00000   0.00000   0.49332 ...
   ...  only 12  components have been written...
 
 
================================================================================
 
 ----iterations are completed or convergence reached----
 
 Mean square residual over all n,k,spin=   97.989E-04; max=  70.188E-02
 reduced coordinates (array xred) for   31 atoms
       0.250000000000      0.250000000000      0.000000000000
       0.250000000000      0.000000000000      0.250000000000
       0.000000000000      0.250000000000      0.250000000000
       0.000000000000      0.000000000000      0.500000000000
       0.250000000000      0.250000000000      0.500000000000
       0.250000000000      0.000000000000      0.750000000000
       0.000000000000      0.250000000000      0.750000000000
       0.000000000000      0.500000000000      0.000000000000
       0.250000000000      0.750000000000      0.000000000000
       0.250000000000      0.500000000000      0.250000000000
       0.000000000000      0.750000000000      0.250000000000
       0.000000000000      0.500000000000      0.500000000000
       0.250000000000      0.750000000000      0.500000000000
       0.250000000000      0.500000000000      0.750000000000
       0.000000000000      0.750000000000      0.750000000000
       0.500000000000      0.000000000000      0.000000000000
       0.750000000000      0.250000000000      0.000000000000
       0.750000000000      0.000000000000      0.250000000000
       0.500000000000      0.250000000000      0.250000000000
       0.500000000000      0.000000000000      0.500000000000
       0.750000000000      0.250000000000      0.500000000000
       0.750000000000      0.000000000000      0.750000000000
       0.500000000000      0.250000000000      0.750000000000
       0.500000000000      0.500000000000      0.000000000000
       0.750000000000      0.750000000000      0.000000000000
       0.750000000000      0.500000000000      0.250000000000
       0.500000000000      0.750000000000      0.250000000000
       0.500000000000      0.500000000000      0.500000000000
       0.750000000000      0.750000000000      0.500000000000
       0.750000000000      0.500000000000      0.750000000000
       0.500000000000      0.750000000000      0.750000000000
 rms dE/dt=  2.0482E-01; max dE/dt=  3.9177E-01; dE/dt below (all hartree)
    1       0.391765285017      0.391765285017     -0.000000000000
    2       0.391765285017      0.000000000000      0.391765285017
    3       0.000000000000      0.391765285017      0.391765285017
    4       0.000000000000      0.000000000000      0.000000000000
    5      -0.095313034711     -0.095313034711      0.000000000000
    6       0.391765285017      0.000000000000     -0.391765285017
    7      -0.000000000000      0.391765285017     -0.391765285017
    8       0.000000000000      0.000000000000      0.000000000000
    9       0.391765285017     -0.391765285017     -0.000000000000
   10      -0.095313034711      0.000000000000     -0.095313034711
   11       0.000000000000     -0.391765285017      0.391765285017
   12       0.000000000000      0.000000000000      0.000000000000
   13      -0.095313034711      0.095313034711      0.000000000000
   14      -0.095313034711      0.000000000000      0.095313034711
   15       0.000000000000     -0.391765285017     -0.391765285017
   16       0.000000000000      0.000000000000      0.000000000000
   17      -0.391765285017      0.391765285017      0.000000000000
   18      -0.391765285017     -0.000000000000      0.391765285017
   19      -0.000000000000     -0.095313034711     -0.095313034711
   20       0.000000000000      0.000000000000      0.000000000000
   21       0.095313034711     -0.095313034711     -0.000000000000
   22      -0.391765285017      0.000000000000     -0.391765285017
   23       0.000000000000     -0.095313034711      0.095313034711
   24       0.000000000000      0.000000000000      0.000000000000
   25      -0.391765285017     -0.391765285017     -0.000000000000
   26       0.095313034711     -0.000000000000     -0.095313034711
   27       0.000000000000      0.095313034711     -0.095313034711
   28       0.000000000000      0.000000000000      0.000000000000
   29       0.095313034711      0.095313034711      0.000000000000
   30       0.095313034711      0.000000000000      0.095313034711
   31       0.000000000000      0.095313034711      0.095313034711
 
 cartesian coordinates (angstrom) at end:
    1      2.02939459494265     2.02939459494265     0.00000000000000
    2      2.02939459494265     0.00000000000000     2.02939459494265
    3      0.00000000000000     2.02939459494265     2.02939459494265
    4      0.00000000000000     0.00000000000000     4.05878918988530
    5      2.02939459494265     2.02939459494265     4.05878918988530
    6      2.02939459494265     0.00000000000000     6.08818378482795
    7      0.00000000000000     2.02939459494265     6.08818378482795
    8      0.00000000000000     4.05878918988530     0.00000000000000
    9      2.02939459494265     6.08818378482795     0.00000000000000
   10      2.02939459494265     4.05878918988530     2.02939459494265
   11      0.00000000000000     6.08818378482795     2.02939459494265
   12      0.00000000000000     4.05878918988530     4.05878918988530
   13      2.02939459494265     6.08818378482795     4.05878918988530
   14      2.02939459494265     4.05878918988530     6.08818378482795
   15      0.00000000000000     6.08818378482795     6.08818378482795
   16      4.05878918988530     0.00000000000000     0.00000000000000
   17      6.08818378482795     2.02939459494265     0.00000000000000
   18      6.08818378482795     0.00000000000000     2.02939459494265
   19      4.05878918988530     2.02939459494265     2.02939459494265
   20      4.05878918988530     0.00000000000000     4.05878918988530
   21      6.08818378482795     2.02939459494265     4.05878918988530
   22      6.08818378482795     0.00000000000000     6.08818378482795
   23      4.05878918988530     2.02939459494265     6.08818378482795
   24      4.05878918988530     4.05878918988530     0.00000000000000
   25      6.08818378482795     6.08818378482795     0.00000000000000
   26      6.08818378482795     4.05878918988530     2.02939459494265
   27      4.05878918988530     6.08818378482795     2.02939459494265
   28      4.05878918988530     4.05878918988530     4.05878918988530
   29      6.08818378482795     6.08818378482795     4.05878918988530
   30      6.08818378482795     4.05878918988530     6.08818378482795
   31      4.05878918988530     6.08818378482795     6.08818378482795
 
 cartesian forces (hartree/bohr) at end:
    1     -0.02553880606371    -0.02553880606371    -0.00000000000000
    2     -0.02553880606371     0.00000000000000    -0.02553880606371
    3     -0.00000000000000    -0.02553880606371    -0.02553880606371
    4     -0.00000000000000     0.00000000000000    -0.00000000000000
    5      0.00621336601766     0.00621336601766    -0.00000000000000
    6     -0.02553880606371     0.00000000000000     0.02553880606371
    7     -0.00000000000000    -0.02553880606371     0.02553880606371
    8     -0.00000000000000     0.00000000000000    -0.00000000000000
    9     -0.02553880606371     0.02553880606371    -0.00000000000000
   10      0.00621336601766     0.00000000000000     0.00621336601766
   11     -0.00000000000000     0.02553880606371    -0.02553880606371
   12     -0.00000000000000     0.00000000000000    -0.00000000000000
   13      0.00621336601766    -0.00621336601766    -0.00000000000000
   14      0.00621336601766     0.00000000000000    -0.00621336601766
   15     -0.00000000000000     0.02553880606371     0.02553880606371
   16     -0.00000000000000     0.00000000000000    -0.00000000000000
   17      0.02553880606371    -0.02553880606371    -0.00000000000000
   18      0.02553880606371     0.00000000000000    -0.02553880606371
   19     -0.00000000000000     0.00621336601766     0.00621336601766
   20     -0.00000000000000     0.00000000000000    -0.00000000000000
   21     -0.00621336601766     0.00621336601766    -0.00000000000000
   22      0.02553880606371     0.00000000000000     0.02553880606371
   23     -0.00000000000000     0.00621336601766    -0.00621336601766
   24     -0.00000000000000     0.00000000000000    -0.00000000000000
   25      0.02553880606371     0.02553880606371    -0.00000000000000
   26     -0.00621336601766     0.00000000000000     0.00621336601766
   27     -0.00000000000000    -0.00621336601766     0.00621336601766
   28     -0.00000000000000     0.00000000000000    -0.00000000000000
   29     -0.00621336601766    -0.00621336601766    -0.00000000000000
   30     -0.00621336601766     0.00000000000000    -0.00621336601766
   31     -0.00000000000000    -0.00621336601766    -0.00621336601766
 frms,max,avg= 1.3352168E-02 2.5538806E-02   0.000E+00  0.000E+00  0.000E+00 h/b
 
 cartesian forces (eV/Angstrom) at end:
    1     -1.31325809926203    -1.31325809926203    -0.00000000000000
    2     -1.31325809926203     0.00000000000000    -1.31325809926203
    3     -0.00000000000000    -1.31325809926203    -1.31325809926203
    4     -0.00000000000000     0.00000000000000    -0.00000000000000
    5      0.31950409999632     0.31950409999632    -0.00000000000000
    6     -1.31325809926203     0.00000000000000     1.31325809926203
    7     -0.00000000000000    -1.31325809926203     1.31325809926203
    8     -0.00000000000000     0.00000000000000    -0.00000000000000
    9     -1.31325809926203     1.31325809926203    -0.00000000000000
   10      0.31950409999632     0.00000000000000     0.31950409999632
   11     -0.00000000000000     1.31325809926203    -1.31325809926203
   12     -0.00000000000000     0.00000000000000    -0.00000000000000
   13      0.31950409999632    -0.31950409999632    -0.00000000000000
   14      0.31950409999632     0.00000000000000    -0.31950409999632
   15     -0.00000000000000     1.31325809926203     1.31325809926203
   16     -0.00000000000000     0.00000000000000    -0.00000000000000
   17      1.31325809926203    -1.31325809926203    -0.00000000000000
   18      1.31325809926203     0.00000000000000    -1.31325809926203
   19     -0.00000000000000     0.31950409999632     0.31950409999632
   20     -0.00000000000000     0.00000000000000    -0.00000000000000
   21     -0.31950409999632     0.31950409999632    -0.00000000000000
   22      1.31325809926203     0.00000000000000     1.31325809926203
   23     -0.00000000000000     0.31950409999632    -0.31950409999632
   24     -0.00000000000000     0.00000000000000    -0.00000000000000
   25      1.31325809926203     1.31325809926203    -0.00000000000000
   26     -0.31950409999632     0.00000000000000     0.31950409999632
   27     -0.00000000000000    -0.31950409999632     0.31950409999632
   28     -0.00000000000000     0.00000000000000    -0.00000000000000
   29     -0.31950409999632    -0.31950409999632    -0.00000000000000
   30     -0.31950409999632     0.00000000000000    -0.31950409999632
   31     -0.00000000000000    -0.31950409999632    -0.31950409999632
 frms,max,avg= 6.8659604E-01 1.3132581E+00   0.000E+00  0.000E+00  0.000E+00 e/A
 length scales= 15.340000000000 15.340000000000 15.340000000000 bohr
              =  8.117578379771  8.117578379771  8.117578379771 angstroms
 Fermi (or HOMO) energy (hartree) =   0.39065   Average Vxc (hartree)=  -0.49570
 Eigenvalues (hartree) for nkpt=   1  k points:
 kpt#   1, nband=192, wtk=  1.00000, kpt=  0.0000  0.0000  0.0000 (reduced coord)
  -0.78407   -0.72613   -0.72613   -0.72058   -0.72058   -0.72058   -0.70836   -0.67947
  -0.67947   -0.67317   -0.67317   -0.67317   -0.67314   -0.67290   -0.67290   -0.67290
  -0.66986   -0.66986   -0.66986   -0.66252   -0.66252   -0.66252   -0.63137   -0.61895
  -0.61806   -0.61806   -0.61435   -0.61435   -0.61280   -0.61280   -0.61280   -0.33392
  -0.32895   -0.32895   -0.32895   -0.30077   -0.30077   -0.30077   -0.23773   -0.23661
  -0.23661   -0.23661   -0.23104   -0.23104   -0.23104   -0.23042   -0.23042   -0.23042
  -0.22869   -0.22869   -0.22849   -0.22849   -0.22849   -0.22787   -0.22787   -0.22787
  -0.22437   -0.22437   -0.22437   -0.20403   -0.20403   -0.20403   -0.15899   -0.15899
  -0.15869   -0.15869   -0.15869   -0.15566   -0.14972   -0.14972   -0.14972   -0.14818
  -0.14818   -0.14818   -0.14663   -0.13817   -0.13817   -0.13422   -0.13422   -0.13422
  -0.13048   -0.12298   -0.12298   -0.11521   -0.11521   -0.11521   -0.09752   -0.09752
  -0.09752   -0.07526   -0.07526   -0.07526   -0.03847   -0.03847   -0.03847   -0.03801
  -0.03801   -0.03801   -0.03323   -0.03323   -0.03323   -0.02029   -0.02029   -0.02029
  -0.00436   -0.00436   -0.00436   -0.00269   -0.00233   -0.00233   -0.00233   -0.00192
  -0.00192   -0.00192    0.00264    0.00264    0.00327    0.00327    0.00662    0.00662
   0.00662    0.05262    0.05262    0.05262    0.21684    0.23244    0.23244    0.24537
   0.24537    0.24537    0.31469    0.31855    0.31855    0.32861    0.32861    0.32861
   0.32956    0.36303    0.36303    0.36303    0.36627    0.37805    0.37805    0.37805
   0.38025    0.38025    0.38217    0.38217    0.38217    0.38449    0.38489    0.38489
   0.38489    0.39136    0.39136    0.39212    0.39212    0.39212    0.39404    0.39404
   0.39404    0.40314    0.42650    0.42650    0.46380    0.46386    0.46394    0.46526
   0.46533    0.46536    0.48303    0.48597    0.48611    0.48635    0.49458    0.49813
   0.51043    0.51319    0.52082    0.52914    0.53163    0.53479    0.53621    0.54243
   0.54351    0.54730    0.55852    0.57398    0.58433    0.60148    0.63706    0.72073
      occupation numbers for kpt#   1
   2.00000    2.00000    2.00000    2.00000    2.00000    2.00000    2.00000    2.00000
   2.00000    2.00000    2.00000    2.00000    2.00000    2.00000    2.00000    2.00000
   2.00000    2.00000    2.00000    2.00000    2.00000    2.00000    2.00000    2.00000
   2.00000    2.00000    2.00000    2.00000    2.00000    2.00000    2.00000    2.00000
   2.00000    2.00000    2.00000    2.00000    2.00000    2.00000    2.00000    2.00000
   2.00000    2.00000    2.00000    2.00000    2.00000    2.00000    2.00000    2.00000
   2.00000    2.00000    2.00000    2.00000    2.00000    2.00000    2.00000    2.00000
   2.00000    2.00000    2.00000    2.00000    2.00000    2.00000    2.00000    2.00000
   2.00000    2.00000    2.00000    2.00000    2.00000    2.00000    2.00000    2.00000
   2.00000    2.00000    2.00000    2.00000    2.00000    2.00000    2.00000    2.00000
   2.00000    2.00000    2.00000    2.00000    2.00000    2.00000    2.00000    2.00000
   2.00000    2.00000    2.00000    2.00000    2.00000    2.00000    2.00000    2.00000
   2.00000    2.00000    2.00000    2.00000    2.00000    2.00000    2.00000    2.00000
   2.00000    2.00000    2.00000    2.00000    2.00000    2.00000    2.00000    2.00000
   2.00000    2.00000    2.00000    2.00000    2.00000    2.00000    2.00000    2.00000
   2.00000    2.00000    2.00000    2.00000    2.00000    2.00000    2.00000    2.00000
   2.00000    2.00000    2.00000    2.00000    2.00000    2.00000    2.00000    2.00000
   2.00000    2.00000    2.00000    2.00000    1.99999    1.99632    1.99632    1.99632
   1.98904    1.98904    1.97158    1.97158    1.97158    1.91184    1.89359    1.89359
   1.89358    0.82457    0.82456    0.64791    0.64791    0.64790    0.30965    0.30964
   0.30964    0.00388    0.00000    0.00000    0.00000    0.00000    0.00000    0.00000
   0.00000    0.00000    0.00000    0.00000    0.00000    0.00000    0.00000    0.00000
   0.00000    0.00000    0.00000    0.00000    0.00000    0.00000    0.00000    0.00000
   0.00000    0.00000    0.00000    0.00000    0.00000    0.00000    0.00000    0.00000
 
--------------------------------------------------------------------------------
 Components of total free energy (in Hartree) :
 
    Kinetic energy  =  3.06298585300663E+02
    Hartree energy  =  3.63342047488965E+01
    XC energy       = -1.89095373546865E+02
    Ewald energy    = -9.05896420881061E+02
    PspCore energy  =  1.58170863145425E+02
    Loc. psp. energy= -1.22019061726685E+02
    Spherical terms = -8.41967447036549E+01
    >>>>> Internal E= -8.00403947663282E+02
 
    -kT*entropy     = -2.27523452948813E-02
    >>>>>>>>> Etotal= -8.00426700008577E+02
 
 "Double-counting" decomposition of free energy:
    Band energy     = -4.40502591503734E+01
    Ewald energy    =-9.05896420881061E+02
    PspCore energy  =  1.58170863145425E+02
    Dble-C XC-energy=  1.75596259186851E+01
    Spherical terms = -2.61881467609401E+01
    >>>>> Internal E= -8.00404337728264E+02
 
    -kT*entropy     = -2.27523452948813E-02
    >>>> Etotal (DC)= -8.00427090073559E+02
 
  >Total energy in eV           = -2.17807181857264E+04
  >Total DC energy in eV        = -2.17807287999344E+04
--------------------------------------------------------------------------------
 
 
 
 
 
 Cartesian components of stress tensor (hartree/bohr^3)
  sigma(1 1)= -4.33629281E-03  sigma(3 2)=  0.00000000E+00
  sigma(2 2)= -4.33629281E-03  sigma(3 1)=  0.00000000E+00
  sigma(3 3)= -4.33629281E-03  sigma(2 1)=  0.00000000E+00
 
-Cartesian components of stress tensor (GPa)         [Pressure=  1.2758E+02 GPa]
- sigma(1 1)= -1.27578118E+02  sigma(3 2)=  0.00000000E+00
- sigma(2 2)= -1.27578118E+02  sigma(3 1)=  0.00000000E+00
- sigma(3 3)= -1.27578118E+02  sigma(2 1)=  0.00000000E+00
 
== END DATASET(S) ==============================================================
================================================================================
  
 -outvars: echo values of variables after computation  --------
-          iomode           1
            acell      1.5340000000E+01  1.5340000000E+01  1.5340000000E+01 Bohr
              amu      1.37327000E+02
           bandpp         192
      chksymbreak           0
     densfor_pred           6
             ecut      8.00000000E+00 Hartree
           etotal     -8.0042709007E+02
            fcart     -2.5538806064E-02 -2.5538806064E-02 -4.1969116354E-19
                      -2.5538806064E-02  3.3575293083E-19 -2.5538806064E-02
                      -2.2383528722E-19 -2.5538806064E-02 -2.5538806064E-02
                      -2.2383528722E-19  3.3575293083E-19 -4.1969116354E-19
                       6.2133660177E-03  6.2133660177E-03 -4.1969116354E-19
                      -2.5538806064E-02  3.3575293083E-19  2.5538806064E-02
                      -2.2383528722E-19 -2.5538806064E-02  2.5538806064E-02
                      -2.2383528722E-19  3.3575293083E-19 -4.1969116354E-19
                      -2.5538806064E-02  2.5538806064E-02 -4.1969116354E-19
                       6.2133660177E-03  3.3575293083E-19  6.2133660177E-03
                      -2.2383528723E-19  2.5538806064E-02 -2.5538806064E-02
                      -2.2383528722E-19  3.3575293083E-19 -4.1969116354E-19
                       6.2133660177E-03 -6.2133660177E-03 -4.1969116354E-19
                       6.2133660177E-03  3.3575293083E-19 -6.2133660177E-03
                      -2.2383528722E-19  2.5538806064E-02  2.5538806064E-02
                      -2.2383528722E-19  3.3575293083E-19 -4.1969116354E-19
                       2.5538806064E-02 -2.5538806064E-02 -4.1969116355E-19
                       2.5538806064E-02  3.3575293084E-19 -2.5538806064E-02
                      -2.2383528722E-19  6.2133660177E-03  6.2133660177E-03
                      -2.2383528722E-19  3.3575293083E-19 -4.1969116354E-19
                      -6.2133660177E-03  6.2133660177E-03 -4.1969116354E-19
                       2.5538806064E-02  3.3575293083E-19  2.5538806064E-02
                      -2.2383528722E-19  6.2133660177E-03 -6.2133660177E-03
                      -2.2383528722E-19  3.3575293083E-19 -4.1969116354E-19
                       2.5538806064E-02  2.5538806064E-02 -4.1969116354E-19
                      -6.2133660177E-03  3.3575293084E-19  6.2133660177E-03
                      -2.2383528722E-19 -6.2133660177E-03  6.2133660177E-03
                      -2.2383528722E-19  3.3575293083E-19 -4.1969116354E-19
                      -6.2133660177E-03 -6.2133660177E-03 -4.1969116354E-19
                      -6.2133660177E-03  3.3575293083E-19 -6.2133660177E-03
                      -2.2383528722E-19 -6.2133660177E-03 -6.2133660177E-03
-          fftalg         312
           istwfk        1
              ixc           7
           kptopt           0
P           mkmem           1
            natom          31
            nband         192
            ngfft          40      40      40
          ngfftdg          45      45      45
             nkpt           1
            nstep          40
             nsym          48
           ntypat           1
              occ      2.000000  2.000000  2.000000  2.000000  2.000000  2.000000
                       2.000000  2.000000  2.000000  2.000000  2.000000  2.000000
                       2.000000  2.000000  2.000000  2.000000  2.000000  2.000000
                       2.000000  2.000000  2.000000  2.000000  2.000000  2.000000
                       2.000000  2.000000  2.000000  2.000000  2.000000  2.000000
                       2.000000  2.000000  2.000000  2.000000  2.000000  2.000000
                       2.000000  2.000000  2.000000  2.000000  2.000000  2.000000
                       2.000000  2.000000  2.000000  2.000000  2.000000  2.000000
                       2.000000  2.000000  2.000000  2.000000  2.000000  2.000000
                       2.000000  2.000000  2.000000  2.000000  2.000000  2.000000
                       2.000000  2.000000  2.000000  2.000000  2.000000  2.000000
                       2.000000  2.000000  2.000000  2.000000  2.000000  2.000000
                       2.000000  2.000000  2.000000  2.000000  2.000000  2.000000
                       2.000000  2.000000  2.000000  2.000000  2.000000  2.000000
                       2.000000  2.000000  2.000000  2.000000  2.000000  2.000000
                       2.000000  2.000000  2.000000  2.000000  2.000000  2.000000
                       2.000000  2.000000  2.000000  2.000000  2.000000  2.000000
                       2.000000  2.000000  2.000000  2.000000  2.000000  2.000000
                       2.000000  2.000000  2.000000  2.000000  2.000000  2.000000
                       2.000000  2.000000  2.000000  2.000000  2.000000  2.000000
                       2.000000  2.000000  2.000000  2.000000  2.000000  2.000000
                       2.000000  2.000000  2.000000  2.000000  2.000000  2.000000
                       2.000000  2.000000  2.000000  2.000000  2.000000  1.999998
                       1.999998  1.999998  1.999990  1.996321  1.996321  1.996321
                       1.989040  1.989040  1.971578  1.971577  1.971577  1.911842
                       1.893588  1.893586  1.893585  0.824565  0.824563  0.647908
                       0.647905  0.647898  0.309645  0.309641  0.309638  0.003875
                       0.000000  0.000000  0.000000  0.000000  0.000000  0.000000
                       0.000000  0.000000  0.000000  0.000000  0.000000  0.000000
                       0.000000  0.000000  0.000000  0.000000  0.000000  0.000000
                       0.000000  0.000000  0.000000  0.000000  0.000000  0.000000
                       0.000000  0.000000  0.000000  0.000000  0.000000  0.000000
           occopt           3
        paral_kgb           1
        pawecutdg      1.00000000E+01 Hartree
           prtden           0
           prteig           0
            prtwf           0
          spgroup         221
           strten     -4.3362928147E-03 -4.3362928147E-03 -4.3362928147E-03
                       0.0000000000E+00  0.0000000000E+00  0.0000000000E+00
           symrel      1  0  0   0  1  0   0  0  1      -1  0  0   0 -1  0   0  0 -1
                      -1  0  0   0  1  0   0  0 -1       1  0  0   0 -1  0   0  0  1
                      -1  0  0   0 -1  0   0  0  1       1  0  0   0  1  0   0  0 -1
                       1  0  0   0 -1  0   0  0 -1      -1  0  0   0  1  0   0  0  1
                       0  1  0   1  0  0   0  0  1       0 -1  0  -1  0  0   0  0 -1
                       0 -1  0   1  0  0   0  0 -1       0  1  0  -1  0  0   0  0  1
                       0 -1  0  -1  0  0   0  0  1       0  1  0   1  0  0   0  0 -1
                       0  1  0  -1  0  0   0  0 -1       0 -1  0   1  0  0   0  0  1
                       0  0  1   1  0  0   0  1  0       0  0 -1  -1  0  0   0 -1  0
                       0  0 -1   1  0  0   0 -1  0       0  0  1  -1  0  0   0  1  0
                       0  0 -1  -1  0  0   0  1  0       0  0  1   1  0  0   0 -1  0
                       0  0  1  -1  0  0   0 -1  0       0  0 -1   1  0  0   0  1  0
                       1  0  0   0  0  1   0  1  0      -1  0  0   0  0 -1   0 -1  0
                      -1  0  0   0  0  1   0 -1  0       1  0  0   0  0 -1   0  1  0
                      -1  0  0   0  0 -1   0  1  0       1  0  0   0  0  1   0 -1  0
                       1  0  0   0  0 -1   0 -1  0      -1  0  0   0  0  1   0  1  0
                       0  1  0   0  0  1   1  0  0       0 -1  0   0  0 -1  -1  0  0
                       0 -1  0   0  0  1  -1  0  0       0  1  0   0  0 -1   1  0  0
                       0 -1  0   0  0 -1   1  0  0       0  1  0   0  0  1  -1  0  0
                       0  1  0   0  0 -1  -1  0  0       0 -1  0   0  0  1   1  0  0
                       0  0  1   0  1  0   1  0  0       0  0 -1   0 -1  0  -1  0  0
                       0  0 -1   0  1  0  -1  0  0       0  0  1   0 -1  0   1  0  0
                       0  0 -1   0 -1  0   1  0  0       0  0  1   0  1  0  -1  0  0
                       0  0  1   0 -1  0  -1  0  0       0  0 -1   0  1  0   1  0  0
           timopt          -3
           toldfe      1.00000000E-05 Hartree
           tsmear      2.00000000E-03 Hartree
            typat      1  1  1  1  1  1  1  1  1  1  1  1  1  1  1  1  1  1  1  1
                       1  1  1  1  1  1  1  1  1  1  1
           useylm           1
         wfoptalg         111
           xangst      2.0293945949E+00  2.0293945949E+00  0.0000000000E+00
                       2.0293945949E+00  0.0000000000E+00  2.0293945949E+00
                       0.0000000000E+00  2.0293945949E+00  2.0293945949E+00
                       0.0000000000E+00  0.0000000000E+00  4.0587891899E+00
                       2.0293945949E+00  2.0293945949E+00  4.0587891899E+00
                       2.0293945949E+00  0.0000000000E+00  6.0881837848E+00
                       0.0000000000E+00  2.0293945949E+00  6.0881837848E+00
                       0.0000000000E+00  4.0587891899E+00  0.0000000000E+00
                       2.0293945949E+00  6.0881837848E+00  0.0000000000E+00
                       2.0293945949E+00  4.0587891899E+00  2.0293945949E+00
                       0.0000000000E+00  6.0881837848E+00  2.0293945949E+00
                       0.0000000000E+00  4.0587891899E+00  4.0587891899E+00
                       2.0293945949E+00  6.0881837848E+00  4.0587891899E+00
                       2.0293945949E+00  4.0587891899E+00  6.0881837848E+00
                       0.0000000000E+00  6.0881837848E+00  6.0881837848E+00
                       4.0587891899E+00  0.0000000000E+00  0.0000000000E+00
                       6.0881837848E+00  2.0293945949E+00  0.0000000000E+00
                       6.0881837848E+00  0.0000000000E+00  2.0293945949E+00
                       4.0587891899E+00  2.0293945949E+00  2.0293945949E+00
                       4.0587891899E+00  0.0000000000E+00  4.0587891899E+00
                       6.0881837848E+00  2.0293945949E+00  4.0587891899E+00
                       6.0881837848E+00  0.0000000000E+00  6.0881837848E+00
                       4.0587891899E+00  2.0293945949E+00  6.0881837848E+00
                       4.0587891899E+00  4.0587891899E+00  0.0000000000E+00
                       6.0881837848E+00  6.0881837848E+00  0.0000000000E+00
                       6.0881837848E+00  4.0587891899E+00  2.0293945949E+00
                       4.0587891899E+00  6.0881837848E+00  2.0293945949E+00
                       4.0587891899E+00  4.0587891899E+00  4.0587891899E+00
                       6.0881837848E+00  6.0881837848E+00  4.0587891899E+00
                       6.0881837848E+00  4.0587891899E+00  6.0881837848E+00
                       4.0587891899E+00  6.0881837848E+00  6.0881837848E+00
            xcart      3.8350000000E+00  3.8350000000E+00  0.0000000000E+00
                       3.8350000000E+00  0.0000000000E+00  3.8350000000E+00
                       0.0000000000E+00  3.8350000000E+00  3.8350000000E+00
                       0.0000000000E+00  0.0000000000E+00  7.6700000000E+00
                       3.8350000000E+00  3.8350000000E+00  7.6700000000E+00
                       3.8350000000E+00  0.0000000000E+00  1.1505000000E+01
                       0.0000000000E+00  3.8350000000E+00  1.1505000000E+01
                       0.0000000000E+00  7.6700000000E+00  0.0000000000E+00
                       3.8350000000E+00  1.1505000000E+01  0.0000000000E+00
                       3.8350000000E+00  7.6700000000E+00  3.8350000000E+00
                       0.0000000000E+00  1.1505000000E+01  3.8350000000E+00
                       0.0000000000E+00  7.6700000000E+00  7.6700000000E+00
                       3.8350000000E+00  1.1505000000E+01  7.6700000000E+00
                       3.8350000000E+00  7.6700000000E+00  1.1505000000E+01
                       0.0000000000E+00  1.1505000000E+01  1.1505000000E+01
                       7.6700000000E+00  0.0000000000E+00  0.0000000000E+00
                       1.1505000000E+01  3.8350000000E+00  0.0000000000E+00
                       1.1505000000E+01  0.0000000000E+00  3.8350000000E+00
                       7.6700000000E+00  3.8350000000E+00  3.8350000000E+00
                       7.6700000000E+00  0.0000000000E+00  7.6700000000E+00
                       1.1505000000E+01  3.8350000000E+00  7.6700000000E+00
                       1.1505000000E+01  0.0000000000E+00  1.1505000000E+01
                       7.6700000000E+00  3.8350000000E+00  1.1505000000E+01
                       7.6700000000E+00  7.6700000000E+00  0.0000000000E+00
                       1.1505000000E+01  1.1505000000E+01  0.0000000000E+00
                       1.1505000000E+01  7.6700000000E+00  3.8350000000E+00
                       7.6700000000E+00  1.1505000000E+01  3.8350000000E+00
                       7.6700000000E+00  7.6700000000E+00  7.6700000000E+00
                       1.1505000000E+01  1.1505000000E+01  7.6700000000E+00
                       1.1505000000E+01  7.6700000000E+00  1.1505000000E+01
                       7.6700000000E+00  1.1505000000E+01  1.1505000000E+01
             xred      2.5000000000E-01  2.5000000000E-01  0.0000000000E+00
                       2.5000000000E-01  0.0000000000E+00  2.5000000000E-01
                       0.0000000000E+00  2.5000000000E-01  2.5000000000E-01
                       0.0000000000E+00  0.0000000000E+00  5.0000000000E-01
                       2.5000000000E-01  2.5000000000E-01  5.0000000000E-01
                       2.5000000000E-01  0.0000000000E+00  7.5000000000E-01
                       0.0000000000E+00  2.5000000000E-01  7.5000000000E-01
                       0.0000000000E+00  5.0000000000E-01  0.0000000000E+00
                       2.5000000000E-01  7.5000000000E-01  0.0000000000E+00
                       2.5000000000E-01  5.0000000000E-01  2.5000000000E-01
                       0.0000000000E+00  7.5000000000E-01  2.5000000000E-01
                       0.0000000000E+00  5.0000000000E-01  5.0000000000E-01
                       2.5000000000E-01  7.5000000000E-01  5.0000000000E-01
                       2.5000000000E-01  5.0000000000E-01  7.5000000000E-01
                       0.0000000000E+00  7.5000000000E-01  7.5000000000E-01
                       5.0000000000E-01  0.0000000000E+00  0.0000000000E+00
                       7.5000000000E-01  2.5000000000E-01  0.0000000000E+00
                       7.5000000000E-01  0.0000000000E+00  2.5000000000E-01
                       5.0000000000E-01  2.5000000000E-01  2.5000000000E-01
                       5.0000000000E-01  0.0000000000E+00  5.0000000000E-01
                       7.5000000000E-01  2.5000000000E-01  5.0000000000E-01
                       7.5000000000E-01  0.0000000000E+00  7.5000000000E-01
                       5.0000000000E-01  2.5000000000E-01  7.5000000000E-01
                       5.0000000000E-01  5.0000000000E-01  0.0000000000E+00
                       7.5000000000E-01  7.5000000000E-01  0.0000000000E+00
                       7.5000000000E-01  5.0000000000E-01  2.5000000000E-01
                       5.0000000000E-01  7.5000000000E-01  2.5000000000E-01
                       5.0000000000E-01  5.0000000000E-01  5.0000000000E-01
                       7.5000000000E-01  7.5000000000E-01  5.0000000000E-01
                       7.5000000000E-01  5.0000000000E-01  7.5000000000E-01
                       5.0000000000E-01  7.5000000000E-01  7.5000000000E-01
            znucl       56.00000
 
================================================================================
 
 Test the timer : 
  a combined call timab(*,1,tsec) + timab(*,2,tsec) is 
- CPU time =    2.2017E-05 sec,    Wall time =    8.9512E-06 sec

- Total cpu        time (s,m,h):       1125.6       18.76      0.313
- Total wall clock time (s,m,h):        304.4        5.07      0.085
-
- For major independent code sections, cpu and wall times (sec),
-  as well as % of the time and number of calls for node 0-
-<BEGIN_TIMER mpi_nprocs = 1, omp_nthreads = 4, mpi_rank = 0>
- cpu_time =         1125.6, wall_time =          304.4
-
- routine                        cpu     %       wall     %      number of calls  Gflops    Speedup Efficacity
-                                                                  (-1=no count)
- nonlop(apply)               2150.590 191.1    554.309 182.1            700      -1.00        3.88       0.97
- vtowfk(ssdiag)               989.742  87.9    264.107  86.8             -1      -1.00        3.75       0.94
- chebfiwf2                    989.608  87.9    264.049  86.8             25      -1.00        3.75       0.94
- fourwf%(pot)                 231.916  20.6     60.058  19.7            457      -1.00        3.86       0.97
- getghc-other                  35.995   3.2      9.269   3.0             -1      -1.00        3.88       0.97
- vtowfk(contrib)               35.271   3.1      9.349   3.1             23      -1.00        3.77       0.94
- pawdenpot                     21.460   1.9      5.689   1.9             23      -1.00        3.77       0.94
- pawmkrho                      12.465   1.1      3.306   1.1             23      -1.00        3.77       0.94
- mkrho/=                       12.043   1.1      3.403   1.1             46      -1.00        3.54       0.88
- pawmkrho:symrhoij             11.248   1.0      2.972   1.0             23      -1.00        3.79       0.95
- pawdij/symdij                 10.835   1.0      2.808   0.9             23      -1.00        3.86       0.96
- fourdp                         2.635   0.2      0.754   0.2            213      -1.00        3.50       0.87
- vtorho:pawmkrhoij              2.546   0.2      0.663   0.2             23      -1.00        3.84       0.96
- xc:pot/=fourdp                 1.681   0.1      0.466   0.2             24      -1.00        3.61       0.90
- pawinit                        1.585   0.1      0.413   0.1              2      -1.00        3.83       0.96
- pspini                         1.316   0.1      0.849   0.3              1      -1.00        1.55       0.39
- ewald                          1.137   0.1      0.541   0.2              1      -1.00        2.10       0.53
- stress                         0.716   0.1      0.482   0.2              1      -1.00        1.48       0.37
- vtowfk  (1)                    0.670   0.1      0.169   0.1             23      -1.00        3.97       0.99
- ewald2 (+vdw_dftd)             0.570   0.1      0.425   0.1              1      -1.00        1.34       0.34
- symrhg(no FFT)                 0.548   0.0      0.132   0.0             23      -1.00        4.14       1.04
- nhatgrid                       0.458   0.0      0.138   0.0              2      -1.00        3.33       0.83
- forces                         0.369   0.0      0.137   0.0              1      -1.00        2.70       0.67
- newkpt(excl. rwwf   )          0.258   0.0      0.073   0.0             -1      -1.00        3.56       0.89
- timing timab                   0.111   0.0      0.045   0.0              5      -1.00        2.46       0.61
- prep_bandfft_tabs              0.099   0.0      0.028   0.0              2      -1.00        3.47       0.87
- invars2                        0.089   0.0      0.089   0.0              1      -1.00        1.00       0.25
- abinit(2)                      0.052   0.0      0.052   0.0              1      -1.00        1.00       0.25
- setsym                         0.045   0.0      0.012   0.0              1      -1.00        3.86       0.96
- scfcv-scprqt                   0.032   0.0      0.006   0.0             23      -1.00        4.93       1.23
- others (105)                   0.000   0.0      0.000   0.0             -1      -1.00        1.09       0.27
-<END_TIMER>
-
- subtotal                    4516.091 401.2   1184.793 389.3                                  3.81       0.95

- For major independent code sections, cpu and wall times (sec),
- as well as % of the total time and number of calls 

-<BEGIN_TIMER mpi_nprocs = 1, omp_nthreads = 4, mpi_rank = world>
- cpu_time =        1125.6, wall_time =         304.4
-
- routine                         cpu     %       wall     %      number of calls Gflops    Speedup Efficacity
-                                                                  (-1=no count)
- nonlop(apply)               2150.590 191.1    554.309 182.1            700      -1.00        3.88       0.97
- vtowfk(ssdiag)               989.742  87.9    264.107  86.8             -1      -1.00        3.75       0.94
- chebfiwf2                    989.608  87.9    264.049  86.8             25      -1.00        3.75       0.94
- fourwf%(pot)                 231.916  20.6     60.058  19.7            457      -1.00        3.86       0.97
- getghc-other                  35.995   3.2      9.269   3.0             -1      -1.00        3.88       0.97
- vtowfk(contrib)               35.271   3.1      9.349   3.1             23      -1.00        3.77       0.94
- pawdenpot                     21.460   1.9      5.689   1.9             23      -1.00        3.77       0.94
- pawmkrho                      12.465   1.1      3.306   1.1             23      -1.00        3.77       0.94
- mkrho/=                       12.043   1.1      3.403   1.1             46      -1.00        3.54       0.88
- pawmkrho:symrhoij             11.248   1.0      2.972   1.0             23      -1.00        3.79       0.95
- pawdij/symdij                 10.835   1.0      2.808   0.9             23      -1.00        3.86       0.96
- fourdp                         2.635   0.2      0.754   0.2            213      -1.00        3.50       0.87
- vtorho:pawmkrhoij              2.546   0.2      0.663   0.2             23      -1.00        3.84       0.96
- xc:pot/=fourdp                 1.681   0.1      0.466   0.2             24      -1.00        3.61       0.90
- pawinit                        1.585   0.1      0.413   0.1              2      -1.00        3.83       0.96
- pspini                         1.316   0.1      0.849   0.3              1      -1.00        1.55       0.39
- ewald                          1.137   0.1      0.541   0.2              1      -1.00        2.10       0.53
- stress                         0.716   0.1      0.482   0.2              1      -1.00        1.48       0.37
- vtowfk  (1)                    0.670   0.1      0.169   0.1             23      -1.00        3.97       0.99
- ewald2 (+vdw_dftd)             0.570   0.1      0.425   0.1              1      -1.00        1.34       0.34
- symrhg(no FFT)                 0.548   0.0      0.132   0.0             23      -1.00        4.14       1.04
- nhatgrid                       0.458   0.0      0.138   0.0              2      -1.00        3.33       0.83
- forces                         0.369   0.0      0.137   0.0              1      -1.00        2.70       0.67
- newkpt(excl. rwwf   )          0.258   0.0      0.073   0.0             -1      -1.00        3.56       0.89
- timing timab                   0.111   0.0      0.045   0.0              5      -1.00        2.46       0.61
- prep_bandfft_tabs              0.099   0.0      0.028   0.0              2      -1.00        3.47       0.87
- invars2                        0.089   0.0      0.089   0.0              1      -1.00        1.00       0.25
- abinit(2)                      0.052   0.0      0.052   0.0              1      -1.00        1.00       0.25
- setsym                         0.045   0.0      0.012   0.0              1      -1.00        3.86       0.96
- scfcv-scprqt                   0.032   0.0      0.006   0.0             23      -1.00        4.93       1.23
- others (105)                   0.000   0.0      0.000   0.0             -1      -1.00        1.09       0.27
-<END_TIMER>

- subtotal                    4516.091 401.2   1184.793 389.3                                  3.81       0.95

 Partitioning of abinit
- abinit                      1125.570 100.0    304.366 100.0              1                   3.70       0.92
 
- indefo+macroin+invars2m        0.089   0.0      0.089   0.0              1                   1.00       0.25
- abinit(4)                      0.158   0.0      0.158   0.1              1                   1.00       0.25
- driver                      1125.213 100.0    304.100  99.9              1                   3.70       0.93

- subtotal                    1125.570 100.0    304.366 100.0                                  3.70       0.92

 Partitioning of driver
- driver                      1125.213 100.0    304.100  99.9              1                   3.70       0.93
 
- gstateimg                   1125.213 100.0    304.099  99.9              1                   3.70       0.93

- subtotal                    1125.213 100.0    304.100  99.9                                  3.70       0.93

 Partitioning of gstateimg+gstate
- gstateimg                   1125.213 100.0    304.099  99.9              1                   3.70       0.93
 
- gstate->kpgsph                 0.342   0.0      0.095   0.0              2                   3.60       0.90
- gstate(pspini)                 1.316   0.1      0.849   0.3              1                   1.55       0.39
- gstate  (2)                    0.939   0.1      0.273   0.1              1                   3.43       0.86
- gstate(...scfcv)            1122.601  99.7    302.867  99.5              1                   3.71       0.93

- subtotal                    1125.212 100.0    304.099  99.9                                  3.70       0.93

 Partitioning of scfcv_core
- scfcv_core                  1122.600  99.7    302.867  99.5              1                   3.71       0.93
 
- scfcv_core(iniloop, setv       1.371   0.1      0.613   0.2             23                   2.24       0.56
- scfcv_core(loop, PAW)         32.396   2.9      8.507   2.8             23                   3.81       0.95
- scfcv_core(vtorho(f))       1060.655  94.2    283.195  93.0             23                   3.75       0.94
- scfcv_core(mix den - new       1.920   0.2      0.563   0.2             22                   3.41       0.85
- scfcv_core(rhotov)             2.869   0.3      0.818   0.3             22                   3.51       0.88
- scfcv_core(afterscfloop)      23.124   2.1      9.102   3.0              1                   2.54       0.64

- subtotal                    1122.600  99.7    302.867  99.5                                  3.71       0.93

 Partitioning of rhotov
- rhotov                         2.282   0.2      0.651   0.2             22                   3.50       0.88
 
- rhotov(rhotoxc)                1.631   0.1      0.452   0.1             22                   3.61       0.90
- (other)                        0.450   0.0      0.128   0.0             -1                   3.51       0.88

- subtotal                       2.282   0.2      0.651   0.2                                  3.50       0.88

 Partitioning of vtorho
- vtorho                      1060.654  94.2    283.194  93.0             23                   3.75       0.94
 
- vtorho(bef. spin loop)         0.256   0.0      0.079   0.0             23                   3.25       0.81
- vtorho(bef. kpt  loop)         0.722   0.1      0.181   0.1             23                   3.99       1.00
- vtorho(bef. vtowfk)            1.342   0.1      0.462   0.2             23                   2.91       0.73
- vtowfk                      1025.683  91.1    273.624  89.9             23                   3.75       0.94
- vtorho(newocc)                 4.474   0.4      1.174   0.4             23                   3.81       0.95
- vtorho(mkrho 1)               12.894   1.1      3.631   1.2             23                   3.55       0.89
- vtorho(mkrho 2)               15.174   1.3      4.014   1.3             23                   3.78       0.95
- mkinvovl                       1.241   0.1      0.430   0.1              1                   2.89       0.72

- subtotal                    1060.654  94.2    283.194  93.0                                  3.75       0.94

 Partitioning of vtowfk
- vtowfk                      1025.683  91.1    273.624  89.9             23                   3.75       0.94
 
- vtowfk  (1)                    0.670   0.1      0.169   0.1             23                   3.97       0.99
- vtowfk(2)                    989.742  87.9    264.106  86.8             -1                   3.75       0.94
- prep_nonlop%vtowfk            34.322   3.0      9.077   3.0             23                   3.78       0.95
- vtowfk(3)                      0.949   0.1      0.272   0.1             -1                   3.48       0.87

- subtotal                    1025.683  91.1    273.624  89.9                                  3.75       0.94

 Partitioning of getghc
- getghc                      2145.547 190.6    553.578 181.9            500                   3.88       0.97
 
- fourwf%getghc                231.916  20.6     60.058  19.7            457                   3.86       0.97
- nonlop%getghc               1877.637 166.8    484.251 159.1            500                   3.88       0.97
- getghc-other                  35.995   3.2      9.269   3.0             -1                   3.88       0.97

- subtotal                    2145.547 190.6    553.578 181.9                                  3.88       0.97

 Partitioning of fourwf (upwards partitioning)
- fourwf                       241.812  21.5     62.874  20.7           4201                   3.85       0.96
 
- fourwf%getghc                231.916  20.6     60.058  19.7            457                   3.86       0.97
- fourwf%prep_four               9.896   0.9      2.816   0.9           3744                   3.51       0.88

- subtotal                     241.812  21.5     62.874  20.7                                  3.85       0.96

 Partitioning of prep_getghc
- prep_getghc                  564.649  50.2    145.728  47.9            125                   3.87       0.97
 
- prep_getghc(before if)         8.759   0.8      2.283   0.8            125                   3.84       0.96
- prep_getghc(getghc - 2 )     550.392  48.9    141.926  46.6            125                   3.88       0.97
- (other)                        5.497   0.5      1.519   0.5             -1                   3.62       0.90

- subtotal                     564.649  50.2    145.728  47.9                                  3.87       0.97

 Partitioning of prep_fourwf
- prep_fourwf                   11.323   1.0      3.216   1.1             23                   3.52       0.88
 
- fourwf%prep_four               9.896   0.9      2.816   0.9           3744                   3.51       0.88
- alltoall%prep_fo               0.457   0.0      0.138   0.0             23                   3.30       0.82

- subtotal                      10.353   0.9      2.954   1.0                                  3.50       0.88

 Partitioning of prep_nonlop
- prep_nonlop                  333.738  29.7     88.840  29.2            224                   3.76       0.94
 
- nonlop%prep_nonl%vtowfk       32.923   2.9      8.707   2.9             23                   3.78       0.95
- nonlop%prep_nonl%forstrn      21.003   1.9      8.093   2.7              1                   2.60       0.65
- prep_nonlop(alltoall)          0.450   0.0      0.120   0.0             24                   3.76       0.94
- (other)                      279.363  24.8     71.921  23.6             -1                   3.88       0.97

- subtotal                     333.738  29.7     88.840  29.2                                  3.76       0.94

 Partitioning of mkrho (upwards partitioning)
- mkrho                         12.894   1.1      3.631   1.2             23                   3.55       0.89
 
- mkrho%vtorho                  12.894   1.1      3.631   1.2             23                   3.55       0.89

- subtotal                      12.894   1.1      3.631   1.2                                  3.55       0.89

 Partitioning of inwffil
- inwffil                        0.258   0.0      0.073   0.0              1                   3.56       0.89
 
- inwffil(call newkpt)           0.258   0.0      0.073   0.0              1                   3.56       0.89

- subtotal                       0.258   0.0      0.073   0.0                                  3.56       0.89

 Partitioning of newkpt
- newkpt                         0.258   0.0      0.073   0.0              1                   3.56       0.89
 
- newkpt(call wfconv)            0.258   0.0      0.072   0.0              1                   3.56       0.89

- subtotal                       0.258   0.0      0.073   0.0                                  3.56       0.89

 Partitioning of newrho
- newrho                         1.918   0.2      0.562   0.2             22                   3.41       0.85
 
- fourdp%newrho                  0.589   0.1      0.172   0.1             44                   3.42       0.85

- subtotal                       0.589   0.1      0.172   0.1                                  3.42       0.85

 Partitioning of  fourdp (upwards partitioning)
- fourdp                         2.635   0.2      0.754   0.2            213                   3.50       0.87
 
- fourdp%(other)                 2.046   0.2      0.581   0.2            169                   3.52       0.88
- fourdp%newrho                  0.589   0.1      0.172   0.1             44                   3.42       0.85

- subtotal                       2.635   0.2      0.754   0.2                                  3.50       0.87

 Partitioning of afterscfloop
- afterscfloop                  23.124   2.1      9.102   3.0              1                   2.54       0.64
 
- afterscfloop(forstr)          23.123   2.1      9.101   3.0              1                   2.54       0.64

- subtotal                      23.124   2.1      9.102   3.0                                  2.54       0.64

 Partitioning of forstr
- forstr                        22.783   2.0      8.992   3.0              1                   2.53       0.63
 
- forstr(forstrnps)             21.565   1.9      8.319   2.7              1                   2.59       0.65
- forstr(forces)                 0.402   0.0      0.150   0.0              1                   2.68       0.67
- forstr(stress)                 0.716   0.1      0.483   0.2              1                   1.48       0.37

- subtotal                      22.783   2.0      8.992   3.0                                  2.53       0.63

 Partitioning of forstrnps
- forstrnps                     21.565   1.9      8.319   2.7              1                   2.59       0.65
 
- forstrnps(nonlop+prep_ba      21.080   1.9      8.121   2.7              1                   2.60       0.65
- forstrnps(kinetic contr)       0.298   0.0      0.139   0.0              1                   2.14       0.54

- subtotal                      21.565   1.9      8.319   2.7                                  2.59       0.65

 Partitioning of outscfcv
- outscfcv                       0.013   0.0      0.014   0.0              1                   0.95       0.24
 

- subtotal                       0.007   0.0      0.008   0.0                                  0.92       0.23

 Partitioning of mkinvovl
- mkinvovl                       1.241   0.1      0.430   0.1              1                   2.89       0.72
 
- mkinvovl(build_ptp)            1.018   0.1      0.374   0.1              1                   2.73       0.68

- subtotal                       1.241   0.1      0.430   0.1                                  2.89       0.72

 Partitioning of chebfiwf2 core engine
- chebfiwf2                    989.608  87.9    264.049  86.8             25                   3.75       0.94
 
- chebfi2_run                  989.299  87.9    263.965  86.7             25                   3.75       0.94
- chebfi2_getAX_BX             564.664  50.2    145.730  47.9            125                   3.87       0.97
- chebfi2_invovl               391.242  34.8    108.099  35.5            100                   3.62       0.90
- chebfi2_residu                 0.826   0.1      0.247   0.1             25                   3.35       0.84
- chebfi2_RayleighRitz          25.296   2.2      8.008   2.6             25                   3.16       0.79
- chebfi2_pcond                  0.290   0.0      0.082   0.0             25                   3.55       0.89
- chebfi2_RR_q                   0.569   0.1      0.143   0.0             25                   3.99       1.00
- chebfi2_next_p               397.033  35.3    109.597  36.0            100                   3.62       0.91
- chebfi2_amp_f                  0.830   0.1      0.222   0.1             25                   3.74       0.93

- subtotal                    2370.153 210.6    636.126 209.0                                  3.73       0.93
-
-Synchronisation (=leave_test) and MPI calls 
- communic.MPI                   0.002   0.0      0.001   0.0            194                   1.55       0.39
-
- forstrnps:synchr               0.000   0.0      0.000   0.0              2                  12.19       3.05
- mkrho :MPIrhor                 0.000   0.0      0.000   0.0             23                   1.26       0.32
- subtotal                       0.000   0.0      0.000   0.0                                  2.29       0.57

 Additional information
- timana(1)                      0.040   0.0      0.015   0.0              1                   2.74       0.68
- total timab                    0.337   0.0      0.137   0.0          15312                   2.46       0.61
- fourwf                       241.812  21.5     62.874  20.7           4201                   3.85       0.96
- newocc                         4.473   0.4      1.174   0.4             23                   3.81       0.95
- nonlop(total)               2204.515 195.9    571.109 187.6            724                   3.86       0.97

 Additional information about PAW segments
- forces:pawatm2ff               0.169   0.0      0.065   0.0              1                   2.58       0.64
- stress:pawatm2ff               0.138   0.0      0.054   0.0              1                   2.58       0.64
- setvtr:pawatm2ff               0.041   0.0      0.022   0.0              1                   1.88       0.47
- pawinit                        1.585   0.1      0.413   0.1              2                   3.83       0.96
- vtowfk:rhoij                  34.323   3.0      9.077   3.0             23                   3.78       0.95
- vtorho:pawmkrhoij              2.546   0.2      0.663   0.2             23                   3.84       0.96
- pawmkrho                      12.465   1.1      3.306   1.1             23                   3.77       0.94
- scfcv_core:mknhat              0.588   0.1      0.167   0.1             23                   3.52       0.88
- nhatgrid                       0.458   0.0      0.138   0.0              2                   3.33       0.83
- pawdenpot                     21.460   1.9      5.689   1.9             23                   3.77       0.94
- pawdij/symdij                 10.835   1.0      2.808   0.9             23                   3.86       0.96


 Detailed analysis of some time consuming routines 
                                  tcpu    ncalls  tcpu/ncalls    ndata tcpu/ncalls/ndata
                                 (sec)                (msec)              (microsec)
- fourwf%(pot)                 231.916       457     507.474    128000       3.965
- fourwf%(den)                   0.000         0
- fourdp                         2.635       213      12.370     64000       0.193
- nonlop(apply)               2150.590       700    3072.271    120497      25.497
- nonlop(forces)                 0.000         0
- nonlop(forstr)                 0.000         0
- projbd                         0.000         0
- xc:pot/=fourdp                 1.681        24      70.051     64000       1.095

================================================================================

 Suggested references for the acknowledgment of ABINIT usage.

 The users of ABINIT have little formal obligations with respect to the ABINIT group
 (those specified in the GNU General Public License, http://www.gnu.org/copyleft/gpl.txt).
 However, it is common practice in the scientific literature,
 to acknowledge the efforts of people that have made the research possible.
 In this spirit, please find below suggested citations of work written by ABINIT developers,
 corresponding to implementations inside of ABINIT that you have used in the present run.
 Note also that it will be of great value to readers of publications presenting these results,
 to read papers enabling them to understand the theoretical formalism and details
 of the ABINIT implementation.
 For information on why they are suggested, see also https://docs.abinit.org/theory/acknowledgments.
-
- [1] Implementation of the Projector Augmented-Wave Method in the ABINIT code.
- M. Torrent, F. Jollet, F. Bottin, G. Zerah, and X. Gonze Comput. Mat. Science 42, 337, (2008).
- Comment : PAW calculations. Strong suggestion to cite this paper.
- DOI and bibtex : see https://docs.abinit.org/theory/bibliography/#torrent2008
-
- [2] Recent developments in the ABINIT software package.
- Computer Phys. Comm. 205, 106 (2016).
- X.Gonze, F.Jollet, F.Abreu Araujo, D.Adams, B.Amadon, T.Applencourt,
- C.Audouze, J.-M.Beuken, J.Bieder, A.Bokhanchuk, E.Bousquet, F.Bruneval
- D.Caliste, M.Cote, F.Dahm, F.Da Pieve, M.Delaveau, M.Di Gennaro,
- B.Dorado, C.Espejo, G.Geneste, L.Genovese, A.Gerossier, M.Giantomassi,
- Y.Gillet, D.R.Hamann, L.He, G.Jomard, J.Laflamme Janssen, S.Le Roux,
- A.Levitt, A.Lherbier, F.Liu, I.Lukacevic, A.Martin, C.Martins,
- M.J.T.Oliveira, S.Ponce, Y.Pouillon, T.Rangel, G.-M.Rignanese,
- A.H.Romero, B.Rousseau, O.Rubel, A.A.Shukri, M.Stankovski, M.Torrent,
- M.J.Van Setten, B.Van Troeye, M.J.Verstraete, D.Waroquier, J.Wiktor,
- B.Xu, A.Zhou, J.W.Zwanziger.
- Comment : the fourth generic paper describing the ABINIT project.
- Note that a version of this paper, that is not formatted for Computer Phys. Comm. 
- is available at https://www.abinit.org/about/ABINIT16.pdf .
- The licence allows the authors to put it on the Web.
- DOI and bibtex : see https://docs.abinit.org/theory/bibliography/#gonze2016
-
- [3] ABINIT : First-principles approach of materials and nanosystem properties.
- Computer Phys. Comm. 180, 2582-2615 (2009).
- X. Gonze, B. Amadon, P.-M. Anglade, J.-M. Beuken, F. Bottin, P. Boulanger, F. Bruneval,
- D. Caliste, R. Caracas, M. Cote, T. Deutsch, L. Genovese, Ph. Ghosez, M. Giantomassi
- S. Goedecker, D.R. Hamann, P. Hermet, F. Jollet, G. Jomard, S. Leroux, M. Mancini, S. Mazevet,
- M.J.T. Oliveira, G. Onida, Y. Pouillon, T. Rangel, G.-M. Rignanese, D. Sangalli, R. Shaltaf,
- M. Torrent, M.J. Verstraete, G. Zerah, J.W. Zwanziger
- Comment : the third generic paper describing the ABINIT project.
- Note that a version of this paper, that is not formatted for Computer Phys. Comm. 
- is available at https://www.abinit.org/about/ABINIT_CPC_v10.pdf .
- The licence allows the authors to put it on the Web.
- DOI and bibtex : see https://docs.abinit.org/theory/bibliography/#gonze2009
-
- [4] A brief introduction to the ABINIT software package.
- Z. Kristallogr. 220, 558-562 (2005).
- X. Gonze, G.-M. Rignanese, M. Verstraete, J.-M. Beuken, Y. Pouillon, R. Caracas, F. Jollet,
- M. Torrent, G. Zerah, M. Mikami, Ph. Ghosez, M. Veithen, J.-Y. Raty, V. Olevano, F. Bruneval,
- L. Reining, R. Godby, G. Onida, D.R. Hamann, and D.C. Allan.
- Comment : the second generic paper describing the ABINIT project. Note that this paper
- should be cited especially if you are using the GW part of ABINIT, as several authors
- of this part are not in the list of authors of the first or third paper.
- The .pdf of the latter paper is available at https://www.abinit.org/about/zfk_0505-06_558-562.pdf.
- Note that it should not redistributed (Copyright by Oldenburg Wissenshaftverlag,
- the licence allows the authors to put it on the Web).
- DOI and bibtex : see https://docs.abinit.org/theory/bibliography/#gonze2005
-
- And optionally:
-
- [5] First-principles computation of material properties : the ABINIT software project. 
- X. Gonze, J.-M. Beuken, R. Caracas, F. Detraux, M. Fuchs, G.-M. Rignanese, L. Sindic,
- M. Verstraete, G. Zerah, F. Jollet, M. Torrent, A. Roy, M. Mikami, Ph. Ghosez, J.-Y. Raty, D.C. Allan.
- Computational Materials Science 25, 478-492 (2002). http://dx.doi.org/10.1016/S0927-0256(02)00325-7
- Comment : the original paper describing the ABINIT project.
- DOI and bibtex : see https://docs.abinit.org/theory/bibliography/#gonze2002
-
- Proc.   0 individual time (sec): cpu=       1125.6  wall=        304.4
 
================================================================================
 
 Calculation completed.
.Delivered   0 WARNINGs and   3 COMMENTs to log file.
+Overall time at end (sec) : cpu=       1125.6  wall=        304.4
