
.Version 8.11.8 of ABINIT 
.(MPI version, prepared for a x86_64_linux_intel19.0 computer) 

.Copyright (C) 1998-2019 ABINIT group . 
 ABINIT comes with ABSOLUTELY NO WARRANTY.
 It is free software, and you are welcome to redistribute it
 under certain conditions (GNU General Public License,
 see ~abinit/COPYING or http://www.gnu.org/copyleft/gpl.txt).

 ABINIT is a project of the Universite Catholique de Louvain,
 Corning Inc. and other collaborators, see ~abinit/doc/developers/contributors.txt .
 Please read https://docs.abinit.org/theory/acknowledgments for suggested
 acknowledgments of the ABINIT effort.
 For more information, see https://www.abinit.org .

.Starting date : Mon 17 Jun 2019.
- ( at 11h32 )
  
- input  file    -> t03.in
- output file    -> t03_x.out
- root for input  files -> t03_xi
- root for output files -> t03_xo
 
- inpspheads : Reading pseudopotential header in XML form from ../../../Psps_for_tests/ba.hpc.paw.xml
 
 Symmetries : space group Pm -3 m (#221); Bravais cP (primitive cubic)
================================================================================
 Values of the parameters that define the memory need of the present run
     intxc =       0    ionmov =       0      iscf =      17    lmnmax =      18
     lnmax =       6     mgfft =      40  mpssoang =       3    mqgrid =    3001
     natom =      31  nloc_mem =       2    nspden =       1   nspinor =       1
    nsppol =       1      nsym =      48    n1xccc =       1    ntypat =       1
    occopt =       3   xclevel =       1
-    mband =         192        mffmem =           1         mkmem =           1
       mpw =        3887          nfft =       64000          nkpt =           1
 PAW method is used; the additional fine FFT grid is defined by:
   mgfftf=        45    nfftf =     91125
================================================================================
P This job should need less than                      83.897 Mbytes of memory.
  Rough estimation (10% accuracy) of disk space for files :
_ WF disk file :     11.390 Mbytes ; DEN or POT disk file :      0.697 Mbytes.
================================================================================
 
--------------------------------------------------------------------------------
------------- Echo of variables that govern the present computation ------------
--------------------------------------------------------------------------------
-
- outvars: echo of selected default values                                      
-   iomode0 =  0 , fftalg0 =312 , wfoptalg0 = 10
-
- outvars: echo of global parameters not present in the input file              
-  max_nthreads =   12
-
 -outvars: echo values of preprocessed input variables --------
-          iomode           1
            acell      1.5340000000E+01  1.5340000000E+01  1.5340000000E+01 Bohr
              amu      1.37327000E+02
           bandpp         192
      chksymbreak           0
     densfor_pred           6
             ecut      8.00000000E+00 Hartree
-          fftalg         312
           istwfk        1
              ixc           7
           kptopt           0
P           mkmem           1
            natom          31
            nband         192
            ngfft          40      40      40
          ngfftdg          45      45      45
             nkpt           1
            nline           7
            nstep          40
             nsym          48
           ntypat           1
              occ      2.000000  2.000000  2.000000  2.000000  2.000000  2.000000
                       2.000000  2.000000  2.000000  2.000000  2.000000  2.000000
                       2.000000  2.000000  2.000000  2.000000  2.000000  2.000000
                       2.000000  2.000000  2.000000  2.000000  2.000000  2.000000
                       2.000000  2.000000  2.000000  2.000000  2.000000  2.000000
                       2.000000  2.000000  2.000000  2.000000  2.000000  2.000000
                       2.000000  2.000000  2.000000  2.000000  2.000000  2.000000
                       2.000000  2.000000  2.000000  2.000000  2.000000  2.000000
                       2.000000  2.000000  2.000000  2.000000  2.000000  2.000000
                       2.000000  2.000000  2.000000  2.000000  2.000000  2.000000
                       2.000000  2.000000  2.000000  2.000000  2.000000  2.000000
                       2.000000  2.000000  2.000000  2.000000  2.000000  2.000000
                       2.000000  2.000000  2.000000  2.000000  2.000000  2.000000
                       2.000000  2.000000  2.000000  2.000000  2.000000  2.000000
                       2.000000  2.000000  2.000000  2.000000  2.000000  2.000000
                       2.000000  2.000000  2.000000  2.000000  2.000000  2.000000
                       2.000000  2.000000  2.000000  2.000000  2.000000  2.000000
                       2.000000  2.000000  2.000000  2.000000  2.000000  2.000000
                       2.000000  2.000000  2.000000  2.000000  2.000000  2.000000
                       2.000000  2.000000  2.000000  2.000000  2.000000  2.000000
                       2.000000  2.000000  2.000000  2.000000  2.000000  2.000000
                       2.000000  2.000000  2.000000  2.000000  2.000000  2.000000
                       2.000000  2.000000  2.000000  2.000000  2.000000  2.000000
                       2.000000  2.000000  2.000000  2.000000  2.000000  2.000000
                       2.000000  2.000000  2.000000  2.000000  2.000000  2.000000
                       2.000000  2.000000  2.000000  2.000000  2.000000  0.000000
                       0.000000  0.000000  0.000000  0.000000  0.000000  0.000000
                       0.000000  0.000000  0.000000  0.000000  0.000000  0.000000
                       0.000000  0.000000  0.000000  0.000000  0.000000  0.000000
                       0.000000  0.000000  0.000000  0.000000  0.000000  0.000000
                       0.000000  0.000000  0.000000  0.000000  0.000000  0.000000
                       0.000000  0.000000  0.000000  0.000000  0.000000  0.000000
           occopt           3
        paral_kgb           1
        pawecutdg      1.00000000E+01 Hartree
           prtden           0
           prteig           0
            prtwf           0
          spgroup         221
           symrel      1  0  0   0  1  0   0  0  1      -1  0  0   0 -1  0   0  0 -1
                      -1  0  0   0  1  0   0  0 -1       1  0  0   0 -1  0   0  0  1
                      -1  0  0   0 -1  0   0  0  1       1  0  0   0  1  0   0  0 -1
                       1  0  0   0 -1  0   0  0 -1      -1  0  0   0  1  0   0  0  1
                       0  1  0   1  0  0   0  0  1       0 -1  0  -1  0  0   0  0 -1
                       0 -1  0   1  0  0   0  0 -1       0  1  0  -1  0  0   0  0  1
                       0 -1  0  -1  0  0   0  0  1       0  1  0   1  0  0   0  0 -1
                       0  1  0  -1  0  0   0  0 -1       0 -1  0   1  0  0   0  0  1
                       0  0  1   1  0  0   0  1  0       0  0 -1  -1  0  0   0 -1  0
                       0  0 -1   1  0  0   0 -1  0       0  0  1  -1  0  0   0  1  0
                       0  0 -1  -1  0  0   0  1  0       0  0  1   1  0  0   0 -1  0
                       0  0  1  -1  0  0   0 -1  0       0  0 -1   1  0  0   0  1  0
                       1  0  0   0  0  1   0  1  0      -1  0  0   0  0 -1   0 -1  0
                      -1  0  0   0  0  1   0 -1  0       1  0  0   0  0 -1   0  1  0
                      -1  0  0   0  0 -1   0  1  0       1  0  0   0  0  1   0 -1  0
                       1  0  0   0  0 -1   0 -1  0      -1  0  0   0  0  1   0  1  0
                       0  1  0   0  0  1   1  0  0       0 -1  0   0  0 -1  -1  0  0
                       0 -1  0   0  0  1  -1  0  0       0  1  0   0  0 -1   1  0  0
                       0 -1  0   0  0 -1   1  0  0       0  1  0   0  0  1  -1  0  0
                       0  1  0   0  0 -1  -1  0  0       0 -1  0   0  0  1   1  0  0
                       0  0  1   0  1  0   1  0  0       0  0 -1   0 -1  0  -1  0  0
                       0  0 -1   0  1  0  -1  0  0       0  0  1   0 -1  0   1  0  0
                       0  0 -1   0 -1  0   1  0  0       0  0  1   0  1  0  -1  0  0
                       0  0  1   0 -1  0  -1  0  0       0  0 -1   0  1  0   1  0  0
           timopt          -3
           toldfe      1.00000000E-05 Hartree
           tsmear      2.00000000E-03 Hartree
            typat      1  1  1  1  1  1  1  1  1  1  1  1  1  1  1  1  1  1  1  1
                       1  1  1  1  1  1  1  1  1  1  1
           useylm           1
         wfoptalg         111
           xangst      2.0293945949E+00  2.0293945949E+00  0.0000000000E+00
                       2.0293945949E+00  0.0000000000E+00  2.0293945949E+00
                       0.0000000000E+00  2.0293945949E+00  2.0293945949E+00
                       0.0000000000E+00  0.0000000000E+00  4.0587891899E+00
                       2.0293945949E+00  2.0293945949E+00  4.0587891899E+00
                       2.0293945949E+00  0.0000000000E+00  6.0881837848E+00
                       0.0000000000E+00  2.0293945949E+00  6.0881837848E+00
                       0.0000000000E+00  4.0587891899E+00  0.0000000000E+00
                       2.0293945949E+00  6.0881837848E+00  0.0000000000E+00
                       2.0293945949E+00  4.0587891899E+00  2.0293945949E+00
                       0.0000000000E+00  6.0881837848E+00  2.0293945949E+00
                       0.0000000000E+00  4.0587891899E+00  4.0587891899E+00
                       2.0293945949E+00  6.0881837848E+00  4.0587891899E+00
                       2.0293945949E+00  4.0587891899E+00  6.0881837848E+00
                       0.0000000000E+00  6.0881837848E+00  6.0881837848E+00
                       4.0587891899E+00  0.0000000000E+00  0.0000000000E+00
                       6.0881837848E+00  2.0293945949E+00  0.0000000000E+00
                       6.0881837848E+00  0.0000000000E+00  2.0293945949E+00
                       4.0587891899E+00  2.0293945949E+00  2.0293945949E+00
                       4.0587891899E+00  0.0000000000E+00  4.0587891899E+00
                       6.0881837848E+00  2.0293945949E+00  4.0587891899E+00
                       6.0881837848E+00  0.0000000000E+00  6.0881837848E+00
                       4.0587891899E+00  2.0293945949E+00  6.0881837848E+00
                       4.0587891899E+00  4.0587891899E+00  0.0000000000E+00
                       6.0881837848E+00  6.0881837848E+00  0.0000000000E+00
                       6.0881837848E+00  4.0587891899E+00  2.0293945949E+00
                       4.0587891899E+00  6.0881837848E+00  2.0293945949E+00
                       4.0587891899E+00  4.0587891899E+00  4.0587891899E+00
                       6.0881837848E+00  6.0881837848E+00  4.0587891899E+00
                       6.0881837848E+00  4.0587891899E+00  6.0881837848E+00
                       4.0587891899E+00  6.0881837848E+00  6.0881837848E+00
            xcart      3.8350000000E+00  3.8350000000E+00  0.0000000000E+00
                       3.8350000000E+00  0.0000000000E+00  3.8350000000E+00
                       0.0000000000E+00  3.8350000000E+00  3.8350000000E+00
                       0.0000000000E+00  0.0000000000E+00  7.6700000000E+00
                       3.8350000000E+00  3.8350000000E+00  7.6700000000E+00
                       3.8350000000E+00  0.0000000000E+00  1.1505000000E+01
                       0.0000000000E+00  3.8350000000E+00  1.1505000000E+01
                       0.0000000000E+00  7.6700000000E+00  0.0000000000E+00
                       3.8350000000E+00  1.1505000000E+01  0.0000000000E+00
                       3.8350000000E+00  7.6700000000E+00  3.8350000000E+00
                       0.0000000000E+00  1.1505000000E+01  3.8350000000E+00
                       0.0000000000E+00  7.6700000000E+00  7.6700000000E+00
                       3.8350000000E+00  1.1505000000E+01  7.6700000000E+00
                       3.8350000000E+00  7.6700000000E+00  1.1505000000E+01
                       0.0000000000E+00  1.1505000000E+01  1.1505000000E+01
                       7.6700000000E+00  0.0000000000E+00  0.0000000000E+00
                       1.1505000000E+01  3.8350000000E+00  0.0000000000E+00
                       1.1505000000E+01  0.0000000000E+00  3.8350000000E+00
                       7.6700000000E+00  3.8350000000E+00  3.8350000000E+00
                       7.6700000000E+00  0.0000000000E+00  7.6700000000E+00
                       1.1505000000E+01  3.8350000000E+00  7.6700000000E+00
                       1.1505000000E+01  0.0000000000E+00  1.1505000000E+01
                       7.6700000000E+00  3.8350000000E+00  1.1505000000E+01
                       7.6700000000E+00  7.6700000000E+00  0.0000000000E+00
                       1.1505000000E+01  1.1505000000E+01  0.0000000000E+00
                       1.1505000000E+01  7.6700000000E+00  3.8350000000E+00
                       7.6700000000E+00  1.1505000000E+01  3.8350000000E+00
                       7.6700000000E+00  7.6700000000E+00  7.6700000000E+00
                       1.1505000000E+01  1.1505000000E+01  7.6700000000E+00
                       1.1505000000E+01  7.6700000000E+00  1.1505000000E+01
                       7.6700000000E+00  1.1505000000E+01  1.1505000000E+01
             xred      2.5000000000E-01  2.5000000000E-01  0.0000000000E+00
                       2.5000000000E-01  0.0000000000E+00  2.5000000000E-01
                       0.0000000000E+00  2.5000000000E-01  2.5000000000E-01
                       0.0000000000E+00  0.0000000000E+00  5.0000000000E-01
                       2.5000000000E-01  2.5000000000E-01  5.0000000000E-01
                       2.5000000000E-01  0.0000000000E+00  7.5000000000E-01
                       0.0000000000E+00  2.5000000000E-01  7.5000000000E-01
                       0.0000000000E+00  5.0000000000E-01  0.0000000000E+00
                       2.5000000000E-01  7.5000000000E-01  0.0000000000E+00
                       2.5000000000E-01  5.0000000000E-01  2.5000000000E-01
                       0.0000000000E+00  7.5000000000E-01  2.5000000000E-01
                       0.0000000000E+00  5.0000000000E-01  5.0000000000E-01
                       2.5000000000E-01  7.5000000000E-01  5.0000000000E-01
                       2.5000000000E-01  5.0000000000E-01  7.5000000000E-01
                       0.0000000000E+00  7.5000000000E-01  7.5000000000E-01
                       5.0000000000E-01  0.0000000000E+00  0.0000000000E+00
                       7.5000000000E-01  2.5000000000E-01  0.0000000000E+00
                       7.5000000000E-01  0.0000000000E+00  2.5000000000E-01
                       5.0000000000E-01  2.5000000000E-01  2.5000000000E-01
                       5.0000000000E-01  0.0000000000E+00  5.0000000000E-01
                       7.5000000000E-01  2.5000000000E-01  5.0000000000E-01
                       7.5000000000E-01  0.0000000000E+00  7.5000000000E-01
                       5.0000000000E-01  2.5000000000E-01  7.5000000000E-01
                       5.0000000000E-01  5.0000000000E-01  0.0000000000E+00
                       7.5000000000E-01  7.5000000000E-01  0.0000000000E+00
                       7.5000000000E-01  5.0000000000E-01  2.5000000000E-01
                       5.0000000000E-01  7.5000000000E-01  2.5000000000E-01
                       5.0000000000E-01  5.0000000000E-01  5.0000000000E-01
                       7.5000000000E-01  7.5000000000E-01  5.0000000000E-01
                       7.5000000000E-01  5.0000000000E-01  7.5000000000E-01
                       5.0000000000E-01  7.5000000000E-01  7.5000000000E-01
            znucl       56.00000
 
================================================================================
 
 chkinp: Checking input parameters for consistency.
 
================================================================================
== DATASET  1 ==================================================================
-   nproc =    1
 
 Exchange-correlation functional for the present dataset will be:
  LDA: Perdew-Wang 92 LSD fit to Ceperley-Alder data - ixc=7
 Citation for XC functional:
  J.P.Perdew and Y.Wang, PRB 45, 13244 (1992)
 
 Real(R)+Recip(G) space primitive vectors, cartesian coordinates (Bohr,Bohr^-1):
 R(1)= 15.3400000  0.0000000  0.0000000  G(1)=  0.0651890  0.0000000  0.0000000
 R(2)=  0.0000000 15.3400000  0.0000000  G(2)=  0.0000000  0.0651890  0.0000000
 R(3)=  0.0000000  0.0000000 15.3400000  G(3)=  0.0000000  0.0000000  0.0651890
 Unit cell volume ucvol=  3.6097413E+03 bohr^3
 Angles (23,13,12)=  9.00000000E+01  9.00000000E+01  9.00000000E+01 degrees
 
 Coarse grid specifications (used for wave-functions):
 
 getcut: wavevector=  0.0000  0.0000  0.0000  ngfft=  40  40  40
         ecut(hartree)=      8.000   => boxcut(ratio)=   2.04797
 
 Fine grid specifications (used for densities):
 
 getcut: wavevector=  0.0000  0.0000  0.0000  ngfft=  45  45  45
         ecut(hartree)=     10.000   => boxcut(ratio)=   2.01494
 
--- Pseudopotential description ------------------------------------------------
- pspini: atom type   1  psp file is ../../../Psps_for_tests/ba.hpc.paw.xml
- pspatm: opening atomic psp file    ../../../Psps_for_tests/ba.hpc.paw.xml
- pspatm : Reading pseudopotential header in XML form from ../../../Psps_for_tests/ba.hpc.paw.xml
 Pseudopotential format is: paw10
 basis_size (lnmax)=  6 (lmn_size= 18), orbitals=   0   0   1   1   2   2
 Spheres core radius: rc_sph= 2.31518568
 1 radial meshes are used:
  - mesh 1: r(i)=AA*[exp(BB*(i-1))-1], size=1500 , AA= 0.15658E-03 BB= 0.87685E-02
 Shapefunction is SIN type: shapef(r)=[sin(pi*r/rshp)/(pi*r/rshp)]**2
 Radius for shape functions =  2.01210979
 mmax= 1500
 Radial grid used for partial waves is grid 1
 Radial grid used for projectors is grid 1
 Radial grid used for (t)core density is grid 1
 Radial grid used for Vloc is grid 1
 Radial grid used for pseudo valence density is grid 1
 Mesh size for Vloc has been set to 1341 to avoid numerical noise.
 Compensation charge density is not taken into account in XC energy/potential
 pspatm: atomic psp has been read  and splines computed
 
   5.70955898E+05                                ecore*ucvol(ha*bohr**3)
--------------------------------------------------------------------------------
 
_setup2: Arith. and geom. avg. npw (full set) are    3887.000    3887.000
 
================================================================================
 
     iter   Etot(hartree)      deltaE(h)  residm     nres2
 ETOT  1  -794.05769925663    -7.941E+02 6.492E-02 8.035E+00
 ETOT  2  -799.50539268219    -5.448E+00 1.315E+01 2.027E+00
 ETOT  3  -800.29490092410    -7.895E-01 1.666E-03 4.491E-01
 ETOT  4  -800.42194546217    -1.270E-01 5.739E-04 1.485E-01
 ETOT  5  -800.36086995906     6.108E-02 1.456E+00 6.470E-02
 ETOT  6  -800.09354967519     2.673E-01 1.328E+01 2.623E-01
 ETOT  7  -800.42947669426    -3.359E-01 2.569E-04 3.930E-02
 ETOT  8  -800.42721757195     2.259E-03 2.365E-04 3.793E-03
 ETOT  9  -800.42261656621     4.601E-03 1.324E+00 2.848E-03
 ETOT 10  -800.38128825537     4.133E-02 1.314E+01 1.263E-02
 ETOT 11  -800.42717830724    -4.589E-02 3.298E-05 2.004E-03
 ETOT 12  -800.42710800664     7.030E-05 3.199E-05 6.144E-04
 ETOT 13  -800.42709926351     8.743E-06 2.838E-01 4.275E-04
 ETOT 14  -800.42617893530     9.203E-04 1.324E+01 3.912E-04
 ETOT 15  -800.42709471526    -9.158E-04 1.552E-05 1.231E-04
 ETOT 16  -800.42709465269     6.256E-08 1.386E-05 1.006E-04
 ETOT 17  -800.42709015791     4.495E-06 7.825E-05 3.018E-05
 
 At SCF step   17, etot is converged : 
  for the second time, diff in etot=  4.495E-06 < toldfe=  1.000E-05
 
 Cartesian components of stress tensor (hartree/bohr^3)
  sigma(1 1)= -4.33975195E-03  sigma(3 2)=  0.00000000E+00
  sigma(2 2)= -4.33975195E-03  sigma(3 1)=  0.00000000E+00
  sigma(3 3)= -4.33975195E-03  sigma(2 1)=  0.00000000E+00
 
 Integrated electronic density in atomic spheres:
 ------------------------------------------------
 Atom  Sphere_radius  Integrated_density
    1        2.31519          7.04749773
    2        2.31519          7.04749773
    3        2.31519          7.04749773
    4        2.31519          6.96833704
    5        2.31519          7.10035384
    6        2.31519          7.04749773
    7        2.31519          7.04749773
    8        2.31519          6.96833704
    9        2.31519          7.04749773
   10        2.31519          7.10035384
   11        2.31519          7.04749773
   12        2.31519          7.03178237
   13        2.31519          7.10035384
   14        2.31519          7.10035384
   15        2.31519          7.04749773
   16        2.31519          6.96833704
   17        2.31519          7.04749773
   18        2.31519          7.04749773
   19        2.31519          7.10035384
   20        2.31519          7.03178237
   21        2.31519          7.10035384
   22        2.31519          7.04749773
   23        2.31519          7.10035384
   24        2.31519          7.03178237
   25        2.31519          7.04749773
   26        2.31519          7.10035384
   27        2.31519          7.10035384
   28        2.31519          7.11009572
   29        2.31519          7.10035384
   30        2.31519          7.10035384
   31        2.31519          7.10035384
 
 PAW TEST:
 ==== Compensation charge inside spheres ============
 The following values must be close to each other ...
 Compensation charge over spherical meshes =    -83.804730459113046
 Compensation charge over fine fft grid    =    -83.808588477358157
 
 ==== Results concerning PAW augmentation regions ====
 
 Total pseudopotential strength Dij (hartree):
 Atom #  1
   0.41428   0.06333   0.00046   0.00000   0.00046   0.00011   0.00000   0.00011  -0.00012   0.00000   0.00003   0.00000 ...
   0.06333   0.00885   0.00010   0.00000   0.00010   0.00008   0.00000   0.00008  -0.00003   0.00000   0.00001   0.00000 ...
   0.00046   0.00010  -0.17380   0.00000  -0.00017   0.00054   0.00000  -0.00008   0.00018   0.00000  -0.00008   0.00000 ...
   0.00000   0.00000   0.00000  -0.17371   0.00000   0.00000   0.00061   0.00000   0.00000   0.00009   0.00000   0.00009 ...
   0.00046   0.00010  -0.00017   0.00000  -0.17380  -0.00008   0.00000   0.00054   0.00018   0.00000  -0.00008   0.00000 ...
   0.00011   0.00008   0.00054   0.00000  -0.00008  -1.14546   0.00000  -0.00024   0.00017   0.00000  -0.00008   0.00000 ...
   0.00000   0.00000   0.00000   0.00061   0.00000   0.00000  -1.14527   0.00000   0.00000   0.00007   0.00000   0.00007 ...
   0.00011   0.00008  -0.00008   0.00000   0.00054  -0.00024   0.00000  -1.14546   0.00017   0.00000  -0.00008   0.00000 ...
  -0.00012  -0.00003   0.00018   0.00000   0.00018   0.00017   0.00000   0.00017  -0.03054   0.00000   0.00002   0.00000 ...
   0.00000   0.00000   0.00000   0.00009   0.00000   0.00000   0.00007   0.00000   0.00000  -0.03053   0.00000  -0.00002 ...
   0.00003   0.00001  -0.00008   0.00000  -0.00008  -0.00008   0.00000  -0.00008   0.00002   0.00000  -0.03054   0.00000 ...
   0.00000   0.00000   0.00000   0.00009   0.00000   0.00000   0.00007   0.00000   0.00000  -0.00002   0.00000  -0.03053 ...
   ...  only 12  components have been written...
 Atom # 31
   0.41588   0.06359   0.00017   0.00017   0.00000  -0.00007  -0.00007   0.00000   0.00000  -0.00006  -0.00001   0.00000 ...
   0.06359   0.00890   0.00003   0.00003   0.00000  -0.00000  -0.00000   0.00000   0.00000  -0.00001  -0.00000   0.00000 ...
   0.00017   0.00003  -0.17308  -0.00008   0.00000   0.00077  -0.00004   0.00000   0.00000   0.00003  -0.00001   0.00000 ...
   0.00017   0.00003  -0.00008  -0.17308   0.00000  -0.00004   0.00077   0.00000   0.00000   0.00003   0.00003   0.00000 ...
   0.00000   0.00000   0.00000   0.00000  -0.17302   0.00000   0.00000   0.00084   0.00002   0.00000   0.00000   0.00002 ...
  -0.00007  -0.00000   0.00077  -0.00004   0.00000  -1.14464  -0.00010   0.00000   0.00000   0.00001   0.00001   0.00000 ...
  -0.00007  -0.00000  -0.00004   0.00077   0.00000  -0.00010  -1.14464   0.00000   0.00000   0.00001  -0.00000   0.00000 ...
   0.00000   0.00000   0.00000   0.00000   0.00084   0.00000   0.00000  -1.14455  -0.00001   0.00000   0.00000  -0.00001 ...
   0.00000   0.00000   0.00000   0.00000   0.00002   0.00000   0.00000  -0.00001  -0.03040   0.00000   0.00000  -0.00001 ...
  -0.00006  -0.00001   0.00003   0.00003   0.00000   0.00001   0.00001   0.00000   0.00000  -0.03042  -0.00001   0.00000 ...
  -0.00001  -0.00000  -0.00001   0.00003   0.00000   0.00001  -0.00000   0.00000   0.00000  -0.00001  -0.03044   0.00000 ...
   0.00000   0.00000   0.00000   0.00000   0.00002   0.00000   0.00000  -0.00001  -0.00001   0.00000   0.00000  -0.03040 ...
   ...  only 12  components have been written...
 
 
 Augmentation waves occupancies Rhoij:
 Atom #  1
   2.09479  -0.12081  -0.00175   0.00000  -0.00175  -0.00027   0.00000  -0.00027   0.01803   0.00000  -0.05591   0.00000 ...
  -0.12081   0.25027   0.00199   0.00000   0.00199   0.00129   0.00000   0.00129  -0.02380   0.00000   0.06547   0.00000 ...
  -0.00175   0.00199   1.86545   0.00000   0.01688   0.01083   0.00000  -0.00191   0.01056   0.00000  -0.02930   0.00000 ...
   0.00000   0.00000   0.00000   1.88637   0.00000   0.00000   0.00873   0.00000   0.00000   0.01239   0.00000   0.01239 ...
  -0.00175   0.00199   0.01688   0.00000   1.86545  -0.00191   0.00000   0.01083   0.01056   0.00000  -0.02930   0.00000 ...
  -0.00027   0.00129   0.01083   0.00000  -0.00191   0.00151   0.00000   0.00009   0.00057   0.00000   0.00213   0.00000 ...
   0.00000   0.00000   0.00000   0.00873   0.00000   0.00000   0.00183   0.00000   0.00000  -0.00034   0.00000  -0.00034 ...
  -0.00027   0.00129  -0.00191   0.00000   0.01083   0.00009   0.00000   0.00151   0.00057   0.00000   0.00213   0.00000 ...
   0.01803  -0.02380   0.01056   0.00000   0.01056   0.00057   0.00000   0.00057   0.43429   0.00000   0.02361   0.00000 ...
   0.00000   0.00000   0.00000   0.01239   0.00000   0.00000  -0.00034   0.00000   0.00000   0.44906   0.00000  -0.04516 ...
  -0.05591   0.06547  -0.02930   0.00000  -0.02930   0.00213   0.00000   0.00213   0.02361   0.00000   0.55747   0.00000 ...
   0.00000   0.00000   0.00000   0.01239   0.00000   0.00000  -0.00034   0.00000   0.00000  -0.04516   0.00000   0.44906 ...
   ...  only 12  components have been written...
 Atom # 31
   2.11793  -0.14763  -0.00120  -0.00120   0.00000   0.00000   0.00000   0.00000   0.00000  -0.00925  -0.00974   0.00000 ...
  -0.14763   0.28799   0.00218   0.00218   0.00000  -0.00018  -0.00018   0.00000   0.00000   0.00840   0.00919   0.00000 ...
  -0.00120   0.00218   1.85295   0.00725   0.00000   0.01217  -0.00074   0.00000   0.00000   0.00370  -0.00850   0.00000 ...
  -0.00120   0.00218   0.00725   1.85295   0.00000  -0.00074   0.01217   0.00000   0.00000   0.00370  -0.00165   0.00000 ...
   0.00000   0.00000   0.00000   0.00000   1.88130   0.00000   0.00000   0.00960  -0.01499   0.00000   0.00000  -0.01499 ...
   0.00000  -0.00018   0.01217  -0.00074   0.00000   0.00156   0.00004   0.00000   0.00000  -0.00016   0.00068   0.00000 ...
   0.00000  -0.00018  -0.00074   0.01217   0.00000   0.00004   0.00156   0.00000   0.00000  -0.00016   0.00057   0.00000 ...
   0.00000   0.00000   0.00000   0.00000   0.00960   0.00000   0.00000   0.00185   0.00168   0.00000   0.00000   0.00168 ...
   0.00000   0.00000   0.00000   0.00000  -0.01499   0.00000   0.00000   0.00168   0.49321   0.00000   0.00000  -0.03673 ...
  -0.00925   0.00840   0.00370   0.00370   0.00000  -0.00016  -0.00016   0.00000   0.00000   0.46357   0.01343   0.00000 ...
  -0.00974   0.00919  -0.00850  -0.00165   0.00000   0.00068   0.00057   0.00000   0.00000   0.01343   0.53470   0.00000 ...
   0.00000   0.00000   0.00000   0.00000  -0.01499   0.00000   0.00000   0.00168  -0.03673   0.00000   0.00000   0.49321 ...
   ...  only 12  components have been written...
 
 
================================================================================
 
 ----iterations are completed or convergence reached----
 
 Mean square residual over all n,k,spin=   20.267E-07; max=  78.246E-06
 reduced coordinates (array xred) for   31 atoms
       0.250000000000      0.250000000000      0.000000000000
       0.250000000000      0.000000000000      0.250000000000
       0.000000000000      0.250000000000      0.250000000000
       0.000000000000      0.000000000000      0.500000000000
       0.250000000000      0.250000000000      0.500000000000
       0.250000000000      0.000000000000      0.750000000000
       0.000000000000      0.250000000000      0.750000000000
       0.000000000000      0.500000000000      0.000000000000
       0.250000000000      0.750000000000      0.000000000000
       0.250000000000      0.500000000000      0.250000000000
       0.000000000000      0.750000000000      0.250000000000
       0.000000000000      0.500000000000      0.500000000000
       0.250000000000      0.750000000000      0.500000000000
       0.250000000000      0.500000000000      0.750000000000
       0.000000000000      0.750000000000      0.750000000000
       0.500000000000      0.000000000000      0.000000000000
       0.750000000000      0.250000000000      0.000000000000
       0.750000000000      0.000000000000      0.250000000000
       0.500000000000      0.250000000000      0.250000000000
       0.500000000000      0.000000000000      0.500000000000
       0.750000000000      0.250000000000      0.500000000000
       0.750000000000      0.000000000000      0.750000000000
       0.500000000000      0.250000000000      0.750000000000
       0.500000000000      0.500000000000      0.000000000000
       0.750000000000      0.750000000000      0.000000000000
       0.750000000000      0.500000000000      0.250000000000
       0.500000000000      0.750000000000      0.250000000000
       0.500000000000      0.500000000000      0.500000000000
       0.750000000000      0.750000000000      0.500000000000
       0.750000000000      0.500000000000      0.750000000000
       0.500000000000      0.750000000000      0.750000000000
 rms dE/dt=  2.0569E-01; max dE/dt=  3.9387E-01; dE/dt below (all hartree)
    1       0.393874002185      0.393874002185      0.000000000000
    2       0.393874002185      0.000000000000      0.393874002185
    3       0.000000000000      0.393874002185      0.393874002185
    4       0.000000000000      0.000000000000      0.000000000000
    5      -0.093810032059     -0.093810032059     -0.000000000000
    6       0.393874002185      0.000000000000     -0.393874002185
    7       0.000000000000      0.393874002185     -0.393874002185
    8       0.000000000000      0.000000000000      0.000000000000
    9       0.393874002185     -0.393874002185      0.000000000000
   10      -0.093810032059     -0.000000000000     -0.093810032059
   11      -0.000000000000     -0.393874002185      0.393874002185
   12       0.000000000000      0.000000000000      0.000000000000
   13      -0.093810032059      0.093810032059      0.000000000000
   14      -0.093810032059     -0.000000000000      0.093810032059
   15      -0.000000000000     -0.393874002185     -0.393874002185
   16       0.000000000000      0.000000000000      0.000000000000
   17      -0.393874002185      0.393874002185     -0.000000000000
   18      -0.393874002185      0.000000000000      0.393874002185
   19       0.000000000000     -0.093810032059     -0.093810032059
   20       0.000000000000      0.000000000000      0.000000000000
   21       0.093810032059     -0.093810032059     -0.000000000000
   22      -0.393874002185     -0.000000000000     -0.393874002185
   23       0.000000000000     -0.093810032059      0.093810032059
   24       0.000000000000      0.000000000000      0.000000000000
   25      -0.393874002185     -0.393874002185     -0.000000000000
   26       0.093810032059      0.000000000000     -0.093810032059
   27      -0.000000000000      0.093810032059     -0.093810032059
   28       0.000000000000      0.000000000000      0.000000000000
   29       0.093810032059      0.093810032059     -0.000000000000
   30       0.093810032059     -0.000000000000      0.093810032059
   31       0.000000000000      0.093810032059      0.093810032059
 
 cartesian coordinates (angstrom) at end:
    1      2.02939459494265     2.02939459494265     0.00000000000000
    2      2.02939459494265     0.00000000000000     2.02939459494265
    3      0.00000000000000     2.02939459494265     2.02939459494265
    4      0.00000000000000     0.00000000000000     4.05878918988530
    5      2.02939459494265     2.02939459494265     4.05878918988530
    6      2.02939459494265     0.00000000000000     6.08818378482795
    7      0.00000000000000     2.02939459494265     6.08818378482795
    8      0.00000000000000     4.05878918988530     0.00000000000000
    9      2.02939459494265     6.08818378482795     0.00000000000000
   10      2.02939459494265     4.05878918988530     2.02939459494265
   11      0.00000000000000     6.08818378482795     2.02939459494265
   12      0.00000000000000     4.05878918988530     4.05878918988530
   13      2.02939459494265     6.08818378482795     4.05878918988530
   14      2.02939459494265     4.05878918988530     6.08818378482795
   15      0.00000000000000     6.08818378482795     6.08818378482795
   16      4.05878918988530     0.00000000000000     0.00000000000000
   17      6.08818378482795     2.02939459494265     0.00000000000000
   18      6.08818378482795     0.00000000000000     2.02939459494265
   19      4.05878918988530     2.02939459494265     2.02939459494265
   20      4.05878918988530     0.00000000000000     4.05878918988530
   21      6.08818378482795     2.02939459494265     4.05878918988530
   22      6.08818378482795     0.00000000000000     6.08818378482795
   23      4.05878918988530     2.02939459494265     6.08818378482795
   24      4.05878918988530     4.05878918988530     0.00000000000000
   25      6.08818378482795     6.08818378482795     0.00000000000000
   26      6.08818378482795     4.05878918988530     2.02939459494265
   27      4.05878918988530     6.08818378482795     2.02939459494265
   28      4.05878918988530     4.05878918988530     4.05878918988530
   29      6.08818378482795     6.08818378482795     4.05878918988530
   30      6.08818378482795     4.05878918988530     6.08818378482795
   31      4.05878918988530     6.08818378482795     6.08818378482795
 
 cartesian forces (hartree/bohr) at end:
    1     -0.02567627132891    -0.02567627132891     0.00000000000000
    2     -0.02567627132891     0.00000000000000    -0.02567627132891
    3     -0.00000000000000    -0.02567627132891    -0.02567627132891
    4     -0.00000000000000     0.00000000000000     0.00000000000000
    5      0.00611538670526     0.00611538670526     0.00000000000000
    6     -0.02567627132891     0.00000000000000     0.02567627132891
    7     -0.00000000000000    -0.02567627132891     0.02567627132891
    8     -0.00000000000000     0.00000000000000     0.00000000000000
    9     -0.02567627132891     0.02567627132891     0.00000000000000
   10      0.00611538670526     0.00000000000000     0.00611538670526
   11     -0.00000000000000     0.02567627132891    -0.02567627132891
   12     -0.00000000000000     0.00000000000000     0.00000000000000
   13      0.00611538670526    -0.00611538670526     0.00000000000000
   14      0.00611538670526     0.00000000000000    -0.00611538670526
   15     -0.00000000000000     0.02567627132891     0.02567627132891
   16     -0.00000000000000     0.00000000000000     0.00000000000000
   17      0.02567627132891    -0.02567627132891     0.00000000000000
   18      0.02567627132891     0.00000000000000    -0.02567627132891
   19     -0.00000000000000     0.00611538670526     0.00611538670526
   20     -0.00000000000000     0.00000000000000     0.00000000000000
   21     -0.00611538670526     0.00611538670526     0.00000000000000
   22      0.02567627132891     0.00000000000000     0.02567627132891
   23     -0.00000000000000     0.00611538670526    -0.00611538670526
   24     -0.00000000000000     0.00000000000000     0.00000000000000
   25      0.02567627132891     0.02567627132891     0.00000000000000
   26     -0.00611538670526     0.00000000000000     0.00611538670526
   27     -0.00000000000000    -0.00611538670526     0.00611538670526
   28     -0.00000000000000     0.00000000000000     0.00000000000000
   29     -0.00611538670526    -0.00611538670526     0.00000000000000
   30     -0.00611538670526     0.00000000000000    -0.00611538670526
   31     -0.00000000000000    -0.00611538670526    -0.00611538670526
 frms,max,avg= 1.3408412E-02 2.5676271E-02   0.000E+00  0.000E+00  0.000E+00 h/b
 
 cartesian forces (eV/Angstrom) at end:
    1     -1.32032684681597    -1.32032684681597     0.00000000000000
    2     -1.32032684681597     0.00000000000000    -1.32032684681597
    3     -0.00000000000000    -1.32032684681597    -1.32032684681597
    4     -0.00000000000000     0.00000000000000     0.00000000000000
    5      0.31446580160280     0.31446580160280     0.00000000000000
    6     -1.32032684681597     0.00000000000000     1.32032684681597
    7     -0.00000000000000    -1.32032684681597     1.32032684681597
    8     -0.00000000000000     0.00000000000000     0.00000000000000
    9     -1.32032684681597     1.32032684681597     0.00000000000000
   10      0.31446580160280     0.00000000000000     0.31446580160280
   11     -0.00000000000000     1.32032684681597    -1.32032684681597
   12     -0.00000000000000     0.00000000000000     0.00000000000000
   13      0.31446580160280    -0.31446580160280     0.00000000000000
   14      0.31446580160280     0.00000000000000    -0.31446580160280
   15     -0.00000000000000     1.32032684681597     1.32032684681597
   16     -0.00000000000000     0.00000000000000     0.00000000000000
   17      1.32032684681597    -1.32032684681597     0.00000000000000
   18      1.32032684681597     0.00000000000000    -1.32032684681597
   19     -0.00000000000000     0.31446580160280     0.31446580160280
   20     -0.00000000000000     0.00000000000000     0.00000000000000
   21     -0.31446580160280     0.31446580160280     0.00000000000000
   22      1.32032684681597     0.00000000000000     1.32032684681597
   23     -0.00000000000000     0.31446580160280    -0.31446580160280
   24     -0.00000000000000     0.00000000000000     0.00000000000000
   25      1.32032684681597     1.32032684681597     0.00000000000000
   26     -0.31446580160280     0.00000000000000     0.31446580160280
   27     -0.00000000000000    -0.31446580160280     0.31446580160280
   28     -0.00000000000000     0.00000000000000     0.00000000000000
   29     -0.31446580160280    -0.31446580160280     0.00000000000000
   30     -0.31446580160280     0.00000000000000    -0.31446580160280
   31     -0.00000000000000    -0.31446580160280    -0.31446580160280
 frms,max,avg= 6.8948821E-01 1.3203268E+00   0.000E+00  0.000E+00  0.000E+00 e/A
 length scales= 15.340000000000 15.340000000000 15.340000000000 bohr
              =  8.117578379771  8.117578379771  8.117578379771 angstroms
 Fermi (or HOMO) energy (hartree) =   0.39066   Average Vxc (hartree)=  -0.49570
 Eigenvalues (hartree) for nkpt=   1  k points:
 kpt#   1, nband=192, wtk=  1.00000, kpt=  0.0000  0.0000  0.0000 (reduced coord)
  -0.78406   -0.72612   -0.72612   -0.72057   -0.72057   -0.72057   -0.70836   -0.67949
  -0.67949   -0.67317   -0.67317   -0.67317   -0.67308   -0.67287   -0.67287   -0.67287
  -0.66987   -0.66987   -0.66987   -0.66255   -0.66255   -0.66255   -0.63144   -0.61888
  -0.61803   -0.61803   -0.61439   -0.61439   -0.61280   -0.61280   -0.61280   -0.33392
  -0.32895   -0.32895   -0.32895   -0.30076   -0.30076   -0.30076   -0.23772   -0.23659
  -0.23659   -0.23659   -0.23102   -0.23102   -0.23102   -0.23042   -0.23042   -0.23042
  -0.22868   -0.22868   -0.22853   -0.22853   -0.22853   -0.22787   -0.22787   -0.22787
  -0.22438   -0.22438   -0.22438   -0.20401   -0.20401   -0.20401   -0.15898   -0.15898
  -0.15870   -0.15870   -0.15870   -0.15566   -0.14971   -0.14971   -0.14971   -0.14821
  -0.14821   -0.14821   -0.14663   -0.13817   -0.13817   -0.13421   -0.13421   -0.13421
  -0.13046   -0.12298   -0.12298   -0.11522   -0.11522   -0.11522   -0.09752   -0.09752
  -0.09752   -0.07525   -0.07525   -0.07525   -0.03848   -0.03848   -0.03848   -0.03801
  -0.03801   -0.03801   -0.03323   -0.03323   -0.03323   -0.02032   -0.02032   -0.02032
  -0.00435   -0.00435   -0.00435   -0.00270   -0.00228   -0.00228   -0.00228   -0.00192
  -0.00192   -0.00192    0.00264    0.00264    0.00327    0.00327    0.00660    0.00660
   0.00660    0.05262    0.05262    0.05262    0.21685    0.23245    0.23245    0.24537
   0.24537    0.24537    0.31466    0.31855    0.31855    0.32859    0.32859    0.32859
   0.32957    0.36304    0.36304    0.36304    0.36631    0.37808    0.37808    0.37808
   0.38025    0.38025    0.38217    0.38217    0.38217    0.38446    0.38487    0.38487
   0.38487    0.39139    0.39139    0.39213    0.39213    0.39213    0.39405    0.39405
   0.39405    0.40314    0.42650    0.42650    0.46377    0.46377    0.46377    0.46520
   0.46520    0.46520    0.48257    0.48562    0.48562    0.48562    0.48846    0.48846
   0.49618    0.49618    0.49618    0.52395    0.52399    0.52413    0.52987    0.52991
   0.53027    0.53179    0.53268    0.53389    0.53614    0.53700    0.53964    0.54144
      occupation numbers for kpt#   1
   2.00000    2.00000    2.00000    2.00000    2.00000    2.00000    2.00000    2.00000
   2.00000    2.00000    2.00000    2.00000    2.00000    2.00000    2.00000    2.00000
   2.00000    2.00000    2.00000    2.00000    2.00000    2.00000    2.00000    2.00000
   2.00000    2.00000    2.00000    2.00000    2.00000    2.00000    2.00000    2.00000
   2.00000    2.00000    2.00000    2.00000    2.00000    2.00000    2.00000    2.00000
   2.00000    2.00000    2.00000    2.00000    2.00000    2.00000    2.00000    2.00000
   2.00000    2.00000    2.00000    2.00000    2.00000    2.00000    2.00000    2.00000
   2.00000    2.00000    2.00000    2.00000    2.00000    2.00000    2.00000    2.00000
   2.00000    2.00000    2.00000    2.00000    2.00000    2.00000    2.00000    2.00000
   2.00000    2.00000    2.00000    2.00000    2.00000    2.00000    2.00000    2.00000
   2.00000    2.00000    2.00000    2.00000    2.00000    2.00000    2.00000    2.00000
   2.00000    2.00000    2.00000    2.00000    2.00000    2.00000    2.00000    2.00000
   2.00000    2.00000    2.00000    2.00000    2.00000    2.00000    2.00000    2.00000
   2.00000    2.00000    2.00000    2.00000    2.00000    2.00000    2.00000    2.00000
   2.00000    2.00000    2.00000    2.00000    2.00000    2.00000    2.00000    2.00000
   2.00000    2.00000    2.00000    2.00000    2.00000    2.00000    2.00000    2.00000
   2.00000    2.00000    2.00000    2.00000    2.00000    2.00000    2.00000    2.00000
   2.00000    2.00000    2.00000    2.00000    1.99999    1.99631    1.99631    1.99631
   1.98911    1.98911    1.97171    1.97171    1.97171    1.91383    1.89510    1.89510
   1.89510    0.82037    0.82037    0.64770    0.64770    0.64770    0.31029    0.31029
   0.31029    0.00389    0.00000    0.00000    0.00000    0.00000    0.00000    0.00000
   0.00000    0.00000    0.00000    0.00000    0.00000    0.00000    0.00000    0.00000
   0.00000    0.00000    0.00000    0.00000    0.00000    0.00000    0.00000    0.00000
   0.00000    0.00000    0.00000    0.00000    0.00000    0.00000    0.00000    0.00000
 
--------------------------------------------------------------------------------
 Components of total free energy (in Hartree) :
 
    Kinetic energy  =  3.06299138306526E+02
    Hartree energy  =  3.63342381609168E+01
    XC energy       = -1.89093374518214E+02
    Ewald energy    = -9.05896420881061E+02
    PspCore energy  =  1.58170863145426E+02
    Loc. psp. energy= -1.22018397680322E+02
    Spherical terms = -8.41980440514683E+01
    >>>>> Internal E= -8.00401997518196E+02
 
    -kT*entropy     = -2.27093395684990E-02
    >>>>>>>>> Etotal= -8.00424706857764E+02
 
 "Double-counting" decomposition of free energy:
    Band energy     = -4.40499396173635E+01
    Ewald energy    =-9.05896420881061E+02
    PspCore energy  =  1.58170863145426E+02
    Dble-C XC-energy=  1.75589792181199E+01
    Spherical terms = -2.61878626834657E+01
    >>>>> Internal E= -8.00404380818344E+02
 
    -kT*entropy     = -2.27093395684990E-02
    >>>> Etotal (DC)= -8.00427090157912E+02
 
  >Total energy in eV           = -2.17806639493346E+04
  >Total DC energy in eV        = -2.17807288022298E+04
--------------------------------------------------------------------------------
 
 
 
 
 
 Cartesian components of stress tensor (hartree/bohr^3)
  sigma(1 1)= -4.33975195E-03  sigma(3 2)=  0.00000000E+00
  sigma(2 2)= -4.33975195E-03  sigma(3 1)=  0.00000000E+00
  sigma(3 3)= -4.33975195E-03  sigma(2 1)=  0.00000000E+00
 
-Cartesian components of stress tensor (GPa)         [Pressure=  1.2768E+02 GPa]
- sigma(1 1)= -1.27679889E+02  sigma(3 2)=  0.00000000E+00
- sigma(2 2)= -1.27679889E+02  sigma(3 1)=  0.00000000E+00
- sigma(3 3)= -1.27679889E+02  sigma(2 1)=  0.00000000E+00
 
== END DATASET(S) ==============================================================
================================================================================
  
 -outvars: echo values of variables after computation  --------
-          iomode           1
            acell      1.5340000000E+01  1.5340000000E+01  1.5340000000E+01 Bohr
              amu      1.37327000E+02
           bandpp         192
      chksymbreak           0
     densfor_pred           6
             ecut      8.00000000E+00 Hartree
           etotal     -8.0042709016E+02
            fcart     -2.5676271329E-02 -2.5676271329E-02  3.6373234132E-19
                      -2.5676271329E-02  1.6787646500E-19 -2.5676271329E-02
                      -3.0777352035E-19 -2.5676271329E-02 -2.5676271329E-02
                      -3.0777351993E-19  1.6787646542E-19  3.6373234174E-19
                       6.1153867053E-03  6.1153867053E-03  3.6373234176E-19
                      -2.5676271329E-02  1.6787646542E-19  2.5676271329E-02
                      -3.0777351997E-19 -2.5676271329E-02  2.5676271329E-02
                      -3.0777351993E-19  1.6787646542E-19  3.6373234174E-19
                      -2.5676271329E-02  2.5676271329E-02  3.6373234169E-19
                       6.1153867053E-03  1.6787646543E-19  6.1153867053E-03
                      -3.0777351990E-19  2.5676271329E-02 -2.5676271329E-02
                      -3.0777351993E-19  1.6787646542E-19  3.6373234174E-19
                       6.1153867053E-03 -6.1153867053E-03  3.6373234168E-19
                       6.1153867053E-03  1.6787646547E-19 -6.1153867053E-03
                      -3.0777351951E-19  2.5676271329E-02  2.5676271329E-02
                      -3.0777351993E-19  1.6787646542E-19  3.6373234174E-19
                       2.5676271329E-02 -2.5676271329E-02  3.6373234178E-19
                       2.5676271329E-02  1.6787646542E-19 -2.5676271329E-02
                      -3.0777351993E-19  6.1153867053E-03  6.1153867053E-03
                      -3.0777351993E-19  1.6787646542E-19  3.6373234174E-19
                      -6.1153867053E-03  6.1153867053E-03  3.6373234180E-19
                       2.5676271329E-02  1.6787646584E-19  2.5676271329E-02
                      -3.0777351998E-19  6.1153867053E-03 -6.1153867053E-03
                      -3.0777351993E-19  1.6787646542E-19  3.6373234174E-19
                       2.5676271329E-02  2.5676271329E-02  3.6373234216E-19
                      -6.1153867053E-03  1.6787646536E-19  6.1153867053E-03
                      -3.0777351988E-19 -6.1153867053E-03  6.1153867053E-03
                      -3.0777351993E-19  1.6787646542E-19  3.6373234174E-19
                      -6.1153867053E-03 -6.1153867053E-03  3.6373234175E-19
                      -6.1153867053E-03  1.6787646543E-19 -6.1153867053E-03
                      -3.0777351993E-19 -6.1153867053E-03 -6.1153867053E-03
-          fftalg         312
           istwfk        1
              ixc           7
           kptopt           0
P           mkmem           1
            natom          31
            nband         192
            ngfft          40      40      40
          ngfftdg          45      45      45
             nkpt           1
            nline           7
            nstep          40
             nsym          48
           ntypat           1
              occ      2.000000  2.000000  2.000000  2.000000  2.000000  2.000000
                       2.000000  2.000000  2.000000  2.000000  2.000000  2.000000
                       2.000000  2.000000  2.000000  2.000000  2.000000  2.000000
                       2.000000  2.000000  2.000000  2.000000  2.000000  2.000000
                       2.000000  2.000000  2.000000  2.000000  2.000000  2.000000
                       2.000000  2.000000  2.000000  2.000000  2.000000  2.000000
                       2.000000  2.000000  2.000000  2.000000  2.000000  2.000000
                       2.000000  2.000000  2.000000  2.000000  2.000000  2.000000
                       2.000000  2.000000  2.000000  2.000000  2.000000  2.000000
                       2.000000  2.000000  2.000000  2.000000  2.000000  2.000000
                       2.000000  2.000000  2.000000  2.000000  2.000000  2.000000
                       2.000000  2.000000  2.000000  2.000000  2.000000  2.000000
                       2.000000  2.000000  2.000000  2.000000  2.000000  2.000000
                       2.000000  2.000000  2.000000  2.000000  2.000000  2.000000
                       2.000000  2.000000  2.000000  2.000000  2.000000  2.000000
                       2.000000  2.000000  2.000000  2.000000  2.000000  2.000000
                       2.000000  2.000000  2.000000  2.000000  2.000000  2.000000
                       2.000000  2.000000  2.000000  2.000000  2.000000  2.000000
                       2.000000  2.000000  2.000000  2.000000  2.000000  2.000000
                       2.000000  2.000000  2.000000  2.000000  2.000000  2.000000
                       2.000000  2.000000  2.000000  2.000000  2.000000  2.000000
                       2.000000  2.000000  2.000000  2.000000  2.000000  2.000000
                       2.000000  2.000000  2.000000  2.000000  2.000000  1.999998
                       1.999998  1.999998  1.999990  1.996307  1.996307  1.996307
                       1.989109  1.989109  1.971715  1.971715  1.971715  1.913829
                       1.895102  1.895102  1.895102  0.820366  0.820366  0.647695
                       0.647695  0.647695  0.310295  0.310295  0.310295  0.003894
                       0.000000  0.000000  0.000000  0.000000  0.000000  0.000000
                       0.000000  0.000000  0.000000  0.000000  0.000000  0.000000
                       0.000000  0.000000  0.000000  0.000000  0.000000  0.000000
                       0.000000  0.000000  0.000000  0.000000  0.000000  0.000000
                       0.000000  0.000000  0.000000  0.000000  0.000000  0.000000
           occopt           3
        paral_kgb           1
        pawecutdg      1.00000000E+01 Hartree
           prtden           0
           prteig           0
            prtwf           0
          spgroup         221
           strten     -4.3397519508E-03 -4.3397519508E-03 -4.3397519508E-03
                       0.0000000000E+00  0.0000000000E+00  0.0000000000E+00
           symrel      1  0  0   0  1  0   0  0  1      -1  0  0   0 -1  0   0  0 -1
                      -1  0  0   0  1  0   0  0 -1       1  0  0   0 -1  0   0  0  1
                      -1  0  0   0 -1  0   0  0  1       1  0  0   0  1  0   0  0 -1
                       1  0  0   0 -1  0   0  0 -1      -1  0  0   0  1  0   0  0  1
                       0  1  0   1  0  0   0  0  1       0 -1  0  -1  0  0   0  0 -1
                       0 -1  0   1  0  0   0  0 -1       0  1  0  -1  0  0   0  0  1
                       0 -1  0  -1  0  0   0  0  1       0  1  0   1  0  0   0  0 -1
                       0  1  0  -1  0  0   0  0 -1       0 -1  0   1  0  0   0  0  1
                       0  0  1   1  0  0   0  1  0       0  0 -1  -1  0  0   0 -1  0
                       0  0 -1   1  0  0   0 -1  0       0  0  1  -1  0  0   0  1  0
                       0  0 -1  -1  0  0   0  1  0       0  0  1   1  0  0   0 -1  0
                       0  0  1  -1  0  0   0 -1  0       0  0 -1   1  0  0   0  1  0
                       1  0  0   0  0  1   0  1  0      -1  0  0   0  0 -1   0 -1  0
                      -1  0  0   0  0  1   0 -1  0       1  0  0   0  0 -1   0  1  0
                      -1  0  0   0  0 -1   0  1  0       1  0  0   0  0  1   0 -1  0
                       1  0  0   0  0 -1   0 -1  0      -1  0  0   0  0  1   0  1  0
                       0  1  0   0  0  1   1  0  0       0 -1  0   0  0 -1  -1  0  0
                       0 -1  0   0  0  1  -1  0  0       0  1  0   0  0 -1   1  0  0
                       0 -1  0   0  0 -1   1  0  0       0  1  0   0  0  1  -1  0  0
                       0  1  0   0  0 -1  -1  0  0       0 -1  0   0  0  1   1  0  0
                       0  0  1   0  1  0   1  0  0       0  0 -1   0 -1  0  -1  0  0
                       0  0 -1   0  1  0  -1  0  0       0  0  1   0 -1  0   1  0  0
                       0  0 -1   0 -1  0   1  0  0       0  0  1   0  1  0  -1  0  0
                       0  0  1   0 -1  0  -1  0  0       0  0 -1   0  1  0   1  0  0
           timopt          -3
           toldfe      1.00000000E-05 Hartree
           tsmear      2.00000000E-03 Hartree
            typat      1  1  1  1  1  1  1  1  1  1  1  1  1  1  1  1  1  1  1  1
                       1  1  1  1  1  1  1  1  1  1  1
           useylm           1
         wfoptalg         111
           xangst      2.0293945949E+00  2.0293945949E+00  0.0000000000E+00
                       2.0293945949E+00  0.0000000000E+00  2.0293945949E+00
                       0.0000000000E+00  2.0293945949E+00  2.0293945949E+00
                       0.0000000000E+00  0.0000000000E+00  4.0587891899E+00
                       2.0293945949E+00  2.0293945949E+00  4.0587891899E+00
                       2.0293945949E+00  0.0000000000E+00  6.0881837848E+00
                       0.0000000000E+00  2.0293945949E+00  6.0881837848E+00
                       0.0000000000E+00  4.0587891899E+00  0.0000000000E+00
                       2.0293945949E+00  6.0881837848E+00  0.0000000000E+00
                       2.0293945949E+00  4.0587891899E+00  2.0293945949E+00
                       0.0000000000E+00  6.0881837848E+00  2.0293945949E+00
                       0.0000000000E+00  4.0587891899E+00  4.0587891899E+00
                       2.0293945949E+00  6.0881837848E+00  4.0587891899E+00
                       2.0293945949E+00  4.0587891899E+00  6.0881837848E+00
                       0.0000000000E+00  6.0881837848E+00  6.0881837848E+00
                       4.0587891899E+00  0.0000000000E+00  0.0000000000E+00
                       6.0881837848E+00  2.0293945949E+00  0.0000000000E+00
                       6.0881837848E+00  0.0000000000E+00  2.0293945949E+00
                       4.0587891899E+00  2.0293945949E+00  2.0293945949E+00
                       4.0587891899E+00  0.0000000000E+00  4.0587891899E+00
                       6.0881837848E+00  2.0293945949E+00  4.0587891899E+00
                       6.0881837848E+00  0.0000000000E+00  6.0881837848E+00
                       4.0587891899E+00  2.0293945949E+00  6.0881837848E+00
                       4.0587891899E+00  4.0587891899E+00  0.0000000000E+00
                       6.0881837848E+00  6.0881837848E+00  0.0000000000E+00
                       6.0881837848E+00  4.0587891899E+00  2.0293945949E+00
                       4.0587891899E+00  6.0881837848E+00  2.0293945949E+00
                       4.0587891899E+00  4.0587891899E+00  4.0587891899E+00
                       6.0881837848E+00  6.0881837848E+00  4.0587891899E+00
                       6.0881837848E+00  4.0587891899E+00  6.0881837848E+00
                       4.0587891899E+00  6.0881837848E+00  6.0881837848E+00
            xcart      3.8350000000E+00  3.8350000000E+00  0.0000000000E+00
                       3.8350000000E+00  0.0000000000E+00  3.8350000000E+00
                       0.0000000000E+00  3.8350000000E+00  3.8350000000E+00
                       0.0000000000E+00  0.0000000000E+00  7.6700000000E+00
                       3.8350000000E+00  3.8350000000E+00  7.6700000000E+00
                       3.8350000000E+00  0.0000000000E+00  1.1505000000E+01
                       0.0000000000E+00  3.8350000000E+00  1.1505000000E+01
                       0.0000000000E+00  7.6700000000E+00  0.0000000000E+00
                       3.8350000000E+00  1.1505000000E+01  0.0000000000E+00
                       3.8350000000E+00  7.6700000000E+00  3.8350000000E+00
                       0.0000000000E+00  1.1505000000E+01  3.8350000000E+00
                       0.0000000000E+00  7.6700000000E+00  7.6700000000E+00
                       3.8350000000E+00  1.1505000000E+01  7.6700000000E+00
                       3.8350000000E+00  7.6700000000E+00  1.1505000000E+01
                       0.0000000000E+00  1.1505000000E+01  1.1505000000E+01
                       7.6700000000E+00  0.0000000000E+00  0.0000000000E+00
                       1.1505000000E+01  3.8350000000E+00  0.0000000000E+00
                       1.1505000000E+01  0.0000000000E+00  3.8350000000E+00
                       7.6700000000E+00  3.8350000000E+00  3.8350000000E+00
                       7.6700000000E+00  0.0000000000E+00  7.6700000000E+00
                       1.1505000000E+01  3.8350000000E+00  7.6700000000E+00
                       1.1505000000E+01  0.0000000000E+00  1.1505000000E+01
                       7.6700000000E+00  3.8350000000E+00  1.1505000000E+01
                       7.6700000000E+00  7.6700000000E+00  0.0000000000E+00
                       1.1505000000E+01  1.1505000000E+01  0.0000000000E+00
                       1.1505000000E+01  7.6700000000E+00  3.8350000000E+00
                       7.6700000000E+00  1.1505000000E+01  3.8350000000E+00
                       7.6700000000E+00  7.6700000000E+00  7.6700000000E+00
                       1.1505000000E+01  1.1505000000E+01  7.6700000000E+00
                       1.1505000000E+01  7.6700000000E+00  1.1505000000E+01
                       7.6700000000E+00  1.1505000000E+01  1.1505000000E+01
             xred      2.5000000000E-01  2.5000000000E-01  0.0000000000E+00
                       2.5000000000E-01  0.0000000000E+00  2.5000000000E-01
                       0.0000000000E+00  2.5000000000E-01  2.5000000000E-01
                       0.0000000000E+00  0.0000000000E+00  5.0000000000E-01
                       2.5000000000E-01  2.5000000000E-01  5.0000000000E-01
                       2.5000000000E-01  0.0000000000E+00  7.5000000000E-01
                       0.0000000000E+00  2.5000000000E-01  7.5000000000E-01
                       0.0000000000E+00  5.0000000000E-01  0.0000000000E+00
                       2.5000000000E-01  7.5000000000E-01  0.0000000000E+00
                       2.5000000000E-01  5.0000000000E-01  2.5000000000E-01
                       0.0000000000E+00  7.5000000000E-01  2.5000000000E-01
                       0.0000000000E+00  5.0000000000E-01  5.0000000000E-01
                       2.5000000000E-01  7.5000000000E-01  5.0000000000E-01
                       2.5000000000E-01  5.0000000000E-01  7.5000000000E-01
                       0.0000000000E+00  7.5000000000E-01  7.5000000000E-01
                       5.0000000000E-01  0.0000000000E+00  0.0000000000E+00
                       7.5000000000E-01  2.5000000000E-01  0.0000000000E+00
                       7.5000000000E-01  0.0000000000E+00  2.5000000000E-01
                       5.0000000000E-01  2.5000000000E-01  2.5000000000E-01
                       5.0000000000E-01  0.0000000000E+00  5.0000000000E-01
                       7.5000000000E-01  2.5000000000E-01  5.0000000000E-01
                       7.5000000000E-01  0.0000000000E+00  7.5000000000E-01
                       5.0000000000E-01  2.5000000000E-01  7.5000000000E-01
                       5.0000000000E-01  5.0000000000E-01  0.0000000000E+00
                       7.5000000000E-01  7.5000000000E-01  0.0000000000E+00
                       7.5000000000E-01  5.0000000000E-01  2.5000000000E-01
                       5.0000000000E-01  7.5000000000E-01  2.5000000000E-01
                       5.0000000000E-01  5.0000000000E-01  5.0000000000E-01
                       7.5000000000E-01  7.5000000000E-01  5.0000000000E-01
                       7.5000000000E-01  5.0000000000E-01  7.5000000000E-01
                       5.0000000000E-01  7.5000000000E-01  7.5000000000E-01
            znucl       56.00000
 
================================================================================
 
 Test the timer : 
  a combined call timab(*,1,tsec) + timab(*,2,tsec) is 
- CPU time =    4.0943E-05 sec,    Wall time =    3.1607E-06 sec

- Total cpu        time (s,m,h):       1122.7       18.71      0.312
- Total wall clock time (s,m,h):         98.8        1.65      0.027
-
- For major independent code sections, cpu and wall times (sec),
-  as well as % of the time and number of calls for node 0-
-<BEGIN_TIMER mpi_nprocs = 1, omp_nthreads = 12, mpi_rank = 0>
- cpu_time =         1122.7, wall_time =           98.8
-
- routine                        cpu     %       wall     %      number of calls  Gflops    Speedup Efficacity
-                                                                  (-1=no count)
- nonlop(apply)               3467.148 308.8    298.263 302.0           2090      -1.00       11.62       0.97
- vtowfk(ssdiag)               989.205  88.1     86.183  87.3             -1      -1.00       11.48       0.96
- chebfiwf2                    988.743  88.1     86.142  87.2             19      -1.00       11.48       0.96
- fourwf%(pot)                 557.035  49.6     50.194  50.8           1824      -1.00       11.10       0.92
- getghc-other                 132.248  11.8     11.902  12.1             -1      -1.00       11.11       0.93
- pawdenpot                     29.800   2.7      2.604   2.6             17      -1.00       11.44       0.95
- vtowfk(contrib)               16.364   1.5      1.419   1.4             17      -1.00       11.53       0.96
- pawmkrho                      14.276   1.3      1.229   1.2             17      -1.00       11.62       0.97
- pawdij/symdij                 13.711   1.2      1.174   1.2             17      -1.00       11.68       0.97
- mkrho/=                       13.495   1.2      1.199   1.2             34      -1.00       11.25       0.94
- pawmkrho:symrhoij             11.932   1.1      1.024   1.0             17      -1.00       11.66       0.97
- fourdp                         4.910   0.4      0.399   0.4            159      -1.00       12.29       1.02
- pawinit                        3.816   0.3      0.326   0.3              2      -1.00       11.72       0.98
- pspini                         2.968   0.3      0.807   0.8              1      -1.00        3.68       0.31
- ewald                          2.663   0.2      0.490   0.5              1      -1.00        5.43       0.45
- vtorho:pawmkrhoij              2.472   0.2      0.220   0.2             17      -1.00       11.24       0.94
- stress                         2.423   0.2      0.245   0.2              1      -1.00        9.89       0.82
- xc:pot/=fourdp                 2.375   0.2      0.192   0.2             18      -1.00       12.36       1.03
- ewald2 (+vdw_dftd)             2.230   0.2      0.227   0.2              1      -1.00        9.84       0.82
- vtowfk  (1)                    0.981   0.1      0.095   0.1             17      -1.00       10.30       0.86
- nhatgrid                       0.938   0.1      0.081   0.1              2      -1.00       11.60       0.97
- newkpt(excl. rwwf   )          0.621   0.1      0.052   0.1             -1      -1.00       11.91       0.99
- symrhg(no FFT)                 0.526   0.0      0.057   0.1             17      -1.00        9.18       0.76
- forces                         0.475   0.0      0.040   0.0              1      -1.00       11.99       1.00
- prep_bandfft_tabs              0.239   0.0      0.020   0.0              2      -1.00       11.70       0.98
- setsym                         0.139   0.0      0.010   0.0              1      -1.00       13.42       1.12
- timing timab                   0.138   0.0      0.011   0.0              4      -1.00       12.95       1.08
- invars2                        0.072   0.0      0.072   0.1              1      -1.00        1.00       0.08
- scfcv-scprqt                   0.072   0.0      0.003   0.0             17      -1.00       27.63       2.30
- abinit(2)                      0.050   0.0      0.051   0.1              1      -1.00        1.00       0.08
- others (105)                   0.000   0.0      0.000   0.0             -1      -1.00        1.02       0.08
-<END_TIMER>
-
- subtotal                    6262.069 557.7    544.732 551.5                                 11.50       0.96

- For major independent code sections, cpu and wall times (sec),
- as well as % of the total time and number of calls 

-<BEGIN_TIMER mpi_nprocs = 1, omp_nthreads = 12, mpi_rank = world>
- cpu_time =        1122.7, wall_time =          98.8
-
- routine                         cpu     %       wall     %      number of calls Gflops    Speedup Efficacity
-                                                                  (-1=no count)
- nonlop(apply)               3467.148 308.8    298.263 302.0           2090      -1.00       11.62       0.97
- vtowfk(ssdiag)               989.205  88.1     86.183  87.3             -1      -1.00       11.48       0.96
- chebfiwf2                    988.743  88.1     86.142  87.2             19      -1.00       11.48       0.96
- fourwf%(pot)                 557.035  49.6     50.194  50.8           1824      -1.00       11.10       0.92
- getghc-other                 132.248  11.8     11.902  12.1             -1      -1.00       11.11       0.93
- pawdenpot                     29.800   2.7      2.604   2.6             17      -1.00       11.44       0.95
- vtowfk(contrib)               16.364   1.5      1.419   1.4             17      -1.00       11.53       0.96
- pawmkrho                      14.276   1.3      1.229   1.2             17      -1.00       11.62       0.97
- pawdij/symdij                 13.711   1.2      1.174   1.2             17      -1.00       11.68       0.97
- mkrho/=                       13.495   1.2      1.199   1.2             34      -1.00       11.25       0.94
- pawmkrho:symrhoij             11.932   1.1      1.024   1.0             17      -1.00       11.66       0.97
- fourdp                         4.910   0.4      0.399   0.4            159      -1.00       12.29       1.02
- pawinit                        3.816   0.3      0.326   0.3              2      -1.00       11.72       0.98
- pspini                         2.968   0.3      0.807   0.8              1      -1.00        3.68       0.31
- ewald                          2.663   0.2      0.490   0.5              1      -1.00        5.43       0.45
- vtorho:pawmkrhoij              2.472   0.2      0.220   0.2             17      -1.00       11.24       0.94
- stress                         2.423   0.2      0.245   0.2              1      -1.00        9.89       0.82
- xc:pot/=fourdp                 2.375   0.2      0.192   0.2             18      -1.00       12.36       1.03
- ewald2 (+vdw_dftd)             2.230   0.2      0.227   0.2              1      -1.00        9.84       0.82
- vtowfk  (1)                    0.981   0.1      0.095   0.1             17      -1.00       10.30       0.86
- nhatgrid                       0.938   0.1      0.081   0.1              2      -1.00       11.60       0.97
- newkpt(excl. rwwf   )          0.621   0.1      0.052   0.1             -1      -1.00       11.91       0.99
- symrhg(no FFT)                 0.526   0.0      0.057   0.1             17      -1.00        9.18       0.76
- forces                         0.475   0.0      0.040   0.0              1      -1.00       11.99       1.00
- prep_bandfft_tabs              0.239   0.0      0.020   0.0              2      -1.00       11.70       0.98
- setsym                         0.139   0.0      0.010   0.0              1      -1.00       13.42       1.12
- timing timab                   0.138   0.0      0.011   0.0              4      -1.00       12.95       1.08
- invars2                        0.072   0.0      0.072   0.1              1      -1.00        1.00       0.08
- scfcv-scprqt                   0.072   0.0      0.003   0.0             17      -1.00       27.63       2.30
- abinit(2)                      0.050   0.0      0.051   0.1              1      -1.00        1.00       0.08
- others (105)                   0.000   0.0      0.000   0.0             -1      -1.00        1.02       0.08
-<END_TIMER>

- subtotal                    6262.069 557.7    544.732 551.5                                 11.50       0.96

 Partitioning of abinit
- abinit                      1122.747 100.0     98.767 100.0              1                  11.37       0.95
 
- abinit(2)                      0.050   0.0      0.051   0.1              1                   1.00       0.08
- indefo+macroin+invars2m        0.073   0.0      0.073   0.1              1                   1.00       0.08
- abinit(4)                      0.139   0.0      0.139   0.1              1                   1.00       0.08
- abinit(5)                      0.090   0.0      0.047   0.0              1                   1.91       0.16
- driver                      1122.262 100.0     98.554  99.8              1                  11.39       0.95

- subtotal                    1122.747 100.0     98.767 100.0                                 11.37       0.95

 Partitioning of driver
- driver                      1122.262 100.0     98.554  99.8              1                  11.39       0.95
 
- gstateimg                   1122.259 100.0     98.553  99.8              1                  11.39       0.95

- subtotal                    1122.262 100.0     98.554  99.8                                 11.39       0.95

 Partitioning of gstateimg+gstate
- gstateimg                   1122.259 100.0     98.553  99.8              1                  11.39       0.95
 
- gstate->kpgsph                 0.848   0.1      0.071   0.1              2                  11.99       1.00
- gstate(pspini)                 2.968   0.3      0.807   0.8              1                   3.68       0.31
- gstate  (2)                    2.687   0.2      0.230   0.2              1                  11.66       0.97
- gstate(...scfcv)            1115.750  99.4     97.438  98.7              1                  11.45       0.95

- subtotal                    1122.259 100.0     98.553  99.8                                 11.39       0.95

 Partitioning of scfcv_core
- scfcv_core                  1115.747  99.4     97.438  98.7              1                  11.45       0.95
 
- scfcv_core(iniloop, setv       3.171   0.3      0.549   0.6             17                   5.77       0.48
- scfcv_core(loop, PAW)         43.583   3.9      3.783   3.8             17                  11.52       0.96
- scfcv_core(vtorho(f))       1047.198  93.3     91.209  92.3             17                  11.48       0.96
- scfcv_core(mix den - new       2.973   0.3      0.262   0.3             16                  11.35       0.95
- scfcv_core(rhotov)             3.945   0.4      0.346   0.4             16                  11.41       0.95
- scfcv_core(afterscfloop)      14.443   1.3      1.257   1.3              1                  11.49       0.96

- subtotal                    1115.747  99.4     97.438  98.7                                 11.45       0.95

 Partitioning of rhotov
- rhotov                         3.085   0.3      0.275   0.3             16                  11.23       0.94
 
- rhotov(rhotoxc)                2.233   0.2      0.181   0.2             16                  12.32       1.03
- rhotov(other)                  0.548   0.0      0.049   0.0             16                  11.29       0.94
- (other)                        0.299   0.0      0.042   0.0             -1                   7.06       0.59

- subtotal                       3.085   0.3      0.275   0.3                                 11.23       0.94

 Partitioning of vtorho
- vtorho                      1047.197  93.3     91.209  92.3             17                  11.48       0.96
 
- vtorho(bef. spin loop)         0.426   0.0      0.030   0.0             17                  14.39       1.20
- vtorho(bef. kpt  loop)         1.390   0.1      0.117   0.1             17                  11.89       0.99
- vtorho(bef. vtowfk)            2.200   0.2      0.187   0.2             17                  11.75       0.98
- vtowfk                      1006.550  89.7     87.697  88.8             17                  11.48       0.96
- vtorho(newocc)                 4.414   0.4      0.364   0.4             17                  12.12       1.01
- vtorho(mkrho 1)               15.017   1.3      1.313   1.3             17                  11.44       0.95
- vtorho(mkrho 2)               17.003   1.5      1.476   1.5             17                  11.52       0.96
- mkinvovl                       1.791   0.2      0.152   0.2              1                  11.77       0.98

- subtotal                    1047.197  93.3     91.209  92.3                                 11.48       0.96

 Partitioning of vtowfk
- vtowfk                      1006.550  89.7     87.697  88.8             17                  11.48       0.96
 
- vtowfk  (1)                    0.981   0.1      0.095   0.1             17                  10.30       0.86
- vtowfk(2)                    989.205  88.1     86.182  87.3             -1                  11.48       0.96
- prep_nonlop%vtowfk            14.378   1.3      1.230   1.2             17                  11.69       0.97
- vtowfk(3)                      1.986   0.2      0.190   0.2             -1                  10.46       0.87

- subtotal                    1006.550  89.7     87.697  88.8                                 11.48       0.96

 Partitioning of getghc
- getghc                      3953.022 352.1    342.766 347.0           1824                  11.53       0.96
 
- fourwf%getghc                557.035  49.6     50.194  50.8           1824                  11.10       0.92
- nonlop%getghc               3263.739 290.7    280.670 284.2           1824                  11.63       0.97
- getghc-other                 132.248  11.8     11.902  12.1             -1                  11.11       0.93

- subtotal                    3953.022 352.1    342.766 347.0                                 11.53       0.96

 Partitioning of fourwf (upwards partitioning)
- fourwf                       566.858  50.5     51.063  51.7           4600                  11.10       0.93
 
- fourwf%getghc                557.035  49.6     50.194  50.8           1824                  11.10       0.92
- fourwf%prep_four               9.823   0.9      0.868   0.9           2776                  11.31       0.94

- subtotal                     566.858  50.5     51.063  51.7                                 11.10       0.93

 Partitioning of prep_getghc
- prep_getghc                  418.328  37.3     36.145  36.6            152                  11.57       0.96
 
- prep_getghc(before if)        33.071   2.9      2.850   2.9            152                  11.60       0.97
- prep_getghc(getghc - 2 )     372.443  33.2     32.141  32.5            152                  11.59       0.97
- (other)                       12.813   1.1      1.154   1.2             -1                  11.10       0.93

- subtotal                     418.328  37.3     36.145  36.6                                 11.57       0.96

 Partitioning of prep_fourwf
- prep_fourwf                   11.907   1.1      1.048   1.1             17                  11.36       0.95
 
- fourwf%prep_four               9.823   0.9      0.868   0.9           2776                  11.31       0.94
- alltoall%prep_fo               0.556   0.0      0.039   0.0             17                  14.43       1.20

- subtotal                      10.379   0.9      0.907   0.9                                 11.45       0.95

 Partitioning of prep_nonlop
- prep_nonlop                  243.226  21.7     20.960  21.2            284                  11.60       0.97
 
- nonlop%prep_nonl%vtowfk       12.688   1.1      1.077   1.1             17                  11.78       0.98
- nonlop%prep_nonl%forstrn      10.130   0.9      0.851   0.9              1                  11.91       0.99
- prep_nonlop(alltoall)          0.459   0.0      0.031   0.0             18                  14.59       1.22
- (other)                      219.949  19.6     19.001  19.2             -1                  11.58       0.96

- subtotal                     243.226  21.7     20.960  21.2                                 11.60       0.97

 Partitioning of mkrho (upwards partitioning)
- mkrho                         15.017   1.3      1.313   1.3             17                  11.44       0.95
 
- mkrho%vtorho                  15.017   1.3      1.313   1.3             17                  11.44       0.95

- subtotal                      15.017   1.3      1.313   1.3                                 11.44       0.95

 Partitioning of inwffil
- inwffil                        0.621   0.1      0.052   0.1              1                  11.89       0.99
 
- inwffil(call newkpt)           0.621   0.1      0.052   0.1              1                  11.90       0.99

- subtotal                       0.621   0.1      0.052   0.1                                 11.90       0.99

 Partitioning of newkpt
- newkpt                         0.621   0.1      0.052   0.1              1                  11.90       0.99
 
- newkpt(call wfconv)            0.621   0.1      0.052   0.1              1                  11.92       0.99

- subtotal                       0.621   0.1      0.052   0.1                                 11.91       0.99

 Partitioning of newrho
- newrho                         2.973   0.3      0.262   0.3             16                  11.36       0.95
 
- fourdp%newrho                  0.998   0.1      0.081   0.1             32                  12.25       1.02

- subtotal                       0.998   0.1      0.081   0.1                                 12.25       1.02

 Partitioning of  fourdp (upwards partitioning)
- fourdp                         4.910   0.4      0.399   0.4            159                  12.29       1.02
 
- fourdp%(other)                 3.911   0.3      0.318   0.3            127                  12.31       1.03
- fourdp%newrho                  0.998   0.1      0.081   0.1             32                  12.25       1.02

- subtotal                       4.910   0.4      0.399   0.4                                 12.29       1.02

 Partitioning of afterscfloop
- afterscfloop                  14.443   1.3      1.257   1.3              1                  11.49       0.96
 
- afterscfloop(forstr)          14.442   1.3      1.256   1.3              1                  11.50       0.96

- subtotal                      14.443   1.3      1.257   1.3                                 11.49       0.96

 Partitioning of forstr
- forstr                        13.788   1.2      1.199   1.2              1                  11.50       0.96
 
- forstr(forstrnps)             10.652   0.9      0.894   0.9              1                  11.92       0.99
- forstr(forces)                 0.567   0.1      0.045   0.0              1                  12.56       1.05
- forstr(stress)                 2.423   0.2      0.245   0.2              1                   9.89       0.82

- subtotal                      13.788   1.2      1.199   1.2                                 11.50       0.96

 Partitioning of forstrnps
- forstrnps                     10.652   0.9      0.894   0.9              1                  11.92       0.99
 
- forstrnps(nonlop+prep_ba      10.274   0.9      0.863   0.9              1                  11.90       0.99

- subtotal                      10.652   0.9      0.894   0.9                                 11.92       0.99

 Partitioning of outscfcv
- outscfcv                       0.007   0.0      0.007   0.0              1                   1.00       0.08
 

- subtotal                       0.003   0.0      0.003   0.0                                  0.98       0.08

 Partitioning of mkinvovl
- mkinvovl                       1.791   0.2      0.152   0.2              1                  11.77       0.98
 
- mkinvovl(build_d)              0.562   0.1      0.046   0.0              1                  12.12       1.01
- mkinvovl(build_ptp)            1.228   0.1      0.106   0.1              1                  11.62       0.97

- subtotal                       1.791   0.2      0.152   0.2                                 11.77       0.98

 Partitioning of chebfiwf2 core engine
- chebfiwf2                    988.743  88.1     86.142  87.2             19                  11.48       0.96
 
- chebfi2_run                  988.319  88.0     86.104  87.2             19                  11.48       0.96
- chebfi2_getAX_BX             418.410  37.3     36.147  36.6            152                  11.58       0.96
- chebfi2_invovl               512.249  45.6     44.647  45.2            133                  11.47       0.96
- chebfi2_residu                 1.123   0.1      0.088   0.1             19                  12.83       1.07
- chebfi2_RayleighRitz          44.617   4.0      4.196   4.2             19                  10.63       0.89
- chebfi2_pcond                  0.436   0.0      0.029   0.0             19                  15.22       1.27
- chebfi2_RR_q                   0.698   0.1      0.050   0.1             19                  13.89       1.16
- chebfi2_next_p               521.759  46.5     45.473  46.0            133                  11.47       0.96
- chebfi2_amp_f                  1.230   0.1      0.112   0.1             19                  10.98       0.91

- subtotal                    2488.939 221.7    216.855 219.6                                 11.48       0.96
-
-Synchronisation (=leave_test) and MPI calls 
- communic.MPI                   0.000   0.0      0.000   0.0            134                   1.33       0.11
-
- forstrnps:synchr               0.000   0.0      0.000   0.0              2                   0.00       0.00
- mkrho :MPIrhor                 0.000   0.0      0.000   0.0             17                   0.00       0.00
- subtotal                       0.000   0.0      0.000   0.0                                  0.00       0.00

 Additional information
- timana(1)                      0.115   0.0      0.013   0.0              1                   9.07       0.76
- total timab                    0.690   0.1      0.053   0.1          16861                  12.95       1.08
- fourwf                       566.858  50.5     51.063  51.7           4600                  11.10       0.93
- newocc                         4.414   0.4      0.364   0.4             17                  12.12       1.01
- nonlop(total)               3489.966 310.8    300.191 303.9           2108                  11.63       0.97

 Additional information about PAW segments
- forces:pawatm2ff               0.242   0.0      0.022   0.0              1                  10.93       0.91
- stress:pawatm2ff               0.191   0.0      0.017   0.0              1                  11.55       0.96
- setvtr:pawatm2ff               0.039   0.0      0.020   0.0              1                   1.90       0.16
- pawinit                        3.816   0.3      0.326   0.3              2                  11.72       0.98
- vtowfk:rhoij                  14.378   1.3      1.230   1.2             17                  11.69       0.97
- vtorho:pawmkrhoij              2.472   0.2      0.220   0.2             17                  11.24       0.94
- pawmkrho                      14.276   1.3      1.229   1.2             17                  11.62       0.97
- scfcv_core:mknhat              0.858   0.1      0.071   0.1             17                  12.06       1.01
- nhatgrid                       0.938   0.1      0.081   0.1              2                  11.60       0.97
- pawdenpot                     29.800   2.7      2.604   2.6             17                  11.44       0.95
- pawdij/symdij                 13.711   1.2      1.174   1.2             17                  11.68       0.97


 Detailed analysis of some time consuming routines 
                                  tcpu    ncalls  tcpu/ncalls    ndata tcpu/ncalls/ndata
                                 (sec)                (msec)              (microsec)
- fourwf%(pot)                 557.035      1824     305.392    128000       2.386
- fourwf%(den)                   0.000         0
- fourdp                         4.910       159      30.878     64000       0.482
- nonlop(apply)               3467.148      2090    1658.922    120497      13.767
- nonlop(forces)                 0.000         0
- nonlop(forstr)                 0.000         0
- projbd                         0.000         0
- xc:pot/=fourdp                 2.375        18     131.925     64000       2.061

================================================================================

 Suggested references for the acknowledgment of ABINIT usage.

 The users of ABINIT have little formal obligations with respect to the ABINIT group
 (those specified in the GNU General Public License, http://www.gnu.org/copyleft/gpl.txt).
 However, it is common practice in the scientific literature,
 to acknowledge the efforts of people that have made the research possible.
 In this spirit, please find below suggested citations of work written by ABINIT developers,
 corresponding to implementations inside of ABINIT that you have used in the present run.
 Note also that it will be of great value to readers of publications presenting these results,
 to read papers enabling them to understand the theoretical formalism and details
 of the ABINIT implementation.
 For information on why they are suggested, see also https://docs.abinit.org/theory/acknowledgments.
-
- [1] Implementation of the Projector Augmented-Wave Method in the ABINIT code.
- M. Torrent, F. Jollet, F. Bottin, G. Zerah, and X. Gonze Comput. Mat. Science 42, 337, (2008).
- Comment : PAW calculations. Strong suggestion to cite this paper.
- DOI and bibtex : see https://docs.abinit.org/theory/bibliography/#torrent2008
-
- [2] Recent developments in the ABINIT software package.
- Computer Phys. Comm. 205, 106 (2016).
- X.Gonze, F.Jollet, F.Abreu Araujo, D.Adams, B.Amadon, T.Applencourt,
- C.Audouze, J.-M.Beuken, J.Bieder, A.Bokhanchuk, E.Bousquet, F.Bruneval
- D.Caliste, M.Cote, F.Dahm, F.Da Pieve, M.Delaveau, M.Di Gennaro,
- B.Dorado, C.Espejo, G.Geneste, L.Genovese, A.Gerossier, M.Giantomassi,
- Y.Gillet, D.R.Hamann, L.He, G.Jomard, J.Laflamme Janssen, S.Le Roux,
- A.Levitt, A.Lherbier, F.Liu, I.Lukacevic, A.Martin, C.Martins,
- M.J.T.Oliveira, S.Ponce, Y.Pouillon, T.Rangel, G.-M.Rignanese,
- A.H.Romero, B.Rousseau, O.Rubel, A.A.Shukri, M.Stankovski, M.Torrent,
- M.J.Van Setten, B.Van Troeye, M.J.Verstraete, D.Waroquier, J.Wiktor,
- B.Xu, A.Zhou, J.W.Zwanziger.
- Comment : the fourth generic paper describing the ABINIT project.
- Note that a version of this paper, that is not formatted for Computer Phys. Comm. 
- is available at https://www.abinit.org/about/ABINIT16.pdf .
- The licence allows the authors to put it on the Web.
- DOI and bibtex : see https://docs.abinit.org/theory/bibliography/#gonze2016
-
- [3] ABINIT : First-principles approach of materials and nanosystem properties.
- Computer Phys. Comm. 180, 2582-2615 (2009).
- X. Gonze, B. Amadon, P.-M. Anglade, J.-M. Beuken, F. Bottin, P. Boulanger, F. Bruneval,
- D. Caliste, R. Caracas, M. Cote, T. Deutsch, L. Genovese, Ph. Ghosez, M. Giantomassi
- S. Goedecker, D.R. Hamann, P. Hermet, F. Jollet, G. Jomard, S. Leroux, M. Mancini, S. Mazevet,
- M.J.T. Oliveira, G. Onida, Y. Pouillon, T. Rangel, G.-M. Rignanese, D. Sangalli, R. Shaltaf,
- M. Torrent, M.J. Verstraete, G. Zerah, J.W. Zwanziger
- Comment : the third generic paper describing the ABINIT project.
- Note that a version of this paper, that is not formatted for Computer Phys. Comm. 
- is available at https://www.abinit.org/about/ABINIT_CPC_v10.pdf .
- The licence allows the authors to put it on the Web.
- DOI and bibtex : see https://docs.abinit.org/theory/bibliography/#gonze2009
-
- [4] A brief introduction to the ABINIT software package.
- Z. Kristallogr. 220, 558-562 (2005).
- X. Gonze, G.-M. Rignanese, M. Verstraete, J.-M. Beuken, Y. Pouillon, R. Caracas, F. Jollet,
- M. Torrent, G. Zerah, M. Mikami, Ph. Ghosez, M. Veithen, J.-Y. Raty, V. Olevano, F. Bruneval,
- L. Reining, R. Godby, G. Onida, D.R. Hamann, and D.C. Allan.
- Comment : the second generic paper describing the ABINIT project. Note that this paper
- should be cited especially if you are using the GW part of ABINIT, as several authors
- of this part are not in the list of authors of the first or third paper.
- The .pdf of the latter paper is available at https://www.abinit.org/about/zfk_0505-06_558-562.pdf.
- Note that it should not redistributed (Copyright by Oldenburg Wissenshaftverlag,
- the licence allows the authors to put it on the Web).
- DOI and bibtex : see https://docs.abinit.org/theory/bibliography/#gonze2005
-
- And optionally:
-
- [5] First-principles computation of material properties : the ABINIT software project. 
- X. Gonze, J.-M. Beuken, R. Caracas, F. Detraux, M. Fuchs, G.-M. Rignanese, L. Sindic,
- M. Verstraete, G. Zerah, F. Jollet, M. Torrent, A. Roy, M. Mikami, Ph. Ghosez, J.-Y. Raty, D.C. Allan.
- Computational Materials Science 25, 478-492 (2002). http://dx.doi.org/10.1016/S0927-0256(02)00325-7
- Comment : the original paper describing the ABINIT project.
- DOI and bibtex : see https://docs.abinit.org/theory/bibliography/#gonze2002
-
- Proc.   0 individual time (sec): cpu=       1122.8  wall=         98.8
 
================================================================================
 
 Calculation completed.
.Delivered   0 WARNINGs and   3 COMMENTs to log file.
+Overall time at end (sec) : cpu=       1122.8  wall=         98.8
