
.Version 8.11.9 of ABINIT 
.(MPI version, prepared for a x86_64_linux_intel19.0 computer) 

.Copyright (C) 1998-2019 ABINIT group . 
 ABINIT comes with ABSOLUTELY NO WARRANTY.
 It is free software, and you are welcome to redistribute it
 under certain conditions (GNU General Public License,
 see ~abinit/COPYING or http://www.gnu.org/copyleft/gpl.txt).

 ABINIT is a project of the Universite Catholique de Louvain,
 Corning Inc. and other collaborators, see ~abinit/doc/developers/contributors.txt .
 Please read https://docs.abinit.org/theory/acknowledgments for suggested
 acknowledgments of the ABINIT effort.
 For more information, see https://www.abinit.org .

.Starting date : Thu  8 Aug 2019.
- ( at 10h31 )
  
- input  file    -> t03.in
- output file    -> t03_x.out
- root for input  files -> t03_xi
- root for output files -> t03_xo
 
- inpspheads : Reading pseudopotential header in XML form from ../../../Psps_for_tests/ba.hpc.paw.xml
 
 Symmetries : space group Pm -3 m (#221); Bravais cP (primitive cubic)
================================================================================
 Values of the parameters that define the memory need of the present run
     intxc =       0    ionmov =       0      iscf =      17    lmnmax =      18
     lnmax =       6     mgfft =      40  mpssoang =       3    mqgrid =    3001
     natom =      31  nloc_mem =       2    nspden =       1   nspinor =       1
    nsppol =       1      nsym =      48    n1xccc =       1    ntypat =       1
    occopt =       3   xclevel =       1
-    mband =         192        mffmem =           1         mkmem =           1
       mpw =        1944          nfft =       64000          nkpt =           1
 PAW method is used; the additional fine FFT grid is defined by:
   mgfftf=        45    nfftf =     91125
================================================================================
P This job should need less than                      59.720 Mbytes of memory.
  Rough estimation (10% accuracy) of disk space for files :
_ WF disk file :      5.697 Mbytes ; DEN or POT disk file :      0.697 Mbytes.
================================================================================
 
--------------------------------------------------------------------------------
------------- Echo of variables that govern the present computation ------------
--------------------------------------------------------------------------------
-
- outvars: echo of selected default values                                      
-   iomode0 =  0 , fftalg0 =312 , wfoptalg0 = 10
-
- outvars: echo of global parameters not present in the input file              
-  max_nthreads =   12
-
 -outvars: echo values of preprocessed input variables --------
-          iomode           1
            acell      1.5340000000E+01  1.5340000000E+01  1.5340000000E+01 Bohr
              amu      1.37327000E+02
           bandpp         192
      chksymbreak           0
     densfor_pred           6
             ecut      8.00000000E+00 Hartree
-          fftalg         312
           istwfk        2
              ixc           7
           kptopt           0
P           mkmem           1
            natom          31
            nband         192
            ngfft          40      40      40
          ngfftdg          45      45      45
             nkpt           1
            nline           6
           nnsclo           1
            nstep           5
             nsym          48
           ntypat           1
              occ      2.000000  2.000000  2.000000  2.000000  2.000000  2.000000
                       2.000000  2.000000  2.000000  2.000000  2.000000  2.000000
                       2.000000  2.000000  2.000000  2.000000  2.000000  2.000000
                       2.000000  2.000000  2.000000  2.000000  2.000000  2.000000
                       2.000000  2.000000  2.000000  2.000000  2.000000  2.000000
                       2.000000  2.000000  2.000000  2.000000  2.000000  2.000000
                       2.000000  2.000000  2.000000  2.000000  2.000000  2.000000
                       2.000000  2.000000  2.000000  2.000000  2.000000  2.000000
                       2.000000  2.000000  2.000000  2.000000  2.000000  2.000000
                       2.000000  2.000000  2.000000  2.000000  2.000000  2.000000
                       2.000000  2.000000  2.000000  2.000000  2.000000  2.000000
                       2.000000  2.000000  2.000000  2.000000  2.000000  2.000000
                       2.000000  2.000000  2.000000  2.000000  2.000000  2.000000
                       2.000000  2.000000  2.000000  2.000000  2.000000  2.000000
                       2.000000  2.000000  2.000000  2.000000  2.000000  2.000000
                       2.000000  2.000000  2.000000  2.000000  2.000000  2.000000
                       2.000000  2.000000  2.000000  2.000000  2.000000  2.000000
                       2.000000  2.000000  2.000000  2.000000  2.000000  2.000000
                       2.000000  2.000000  2.000000  2.000000  2.000000  2.000000
                       2.000000  2.000000  2.000000  2.000000  2.000000  2.000000
                       2.000000  2.000000  2.000000  2.000000  2.000000  2.000000
                       2.000000  2.000000  2.000000  2.000000  2.000000  2.000000
                       2.000000  2.000000  2.000000  2.000000  2.000000  2.000000
                       2.000000  2.000000  2.000000  2.000000  2.000000  2.000000
                       2.000000  2.000000  2.000000  2.000000  2.000000  2.000000
                       2.000000  2.000000  2.000000  2.000000  2.000000  0.000000
                       0.000000  0.000000  0.000000  0.000000  0.000000  0.000000
                       0.000000  0.000000  0.000000  0.000000  0.000000  0.000000
                       0.000000  0.000000  0.000000  0.000000  0.000000  0.000000
                       0.000000  0.000000  0.000000  0.000000  0.000000  0.000000
                       0.000000  0.000000  0.000000  0.000000  0.000000  0.000000
                       0.000000  0.000000  0.000000  0.000000  0.000000  0.000000
           occopt           3
        paral_kgb           1
        pawecutdg      1.00000000E+01 Hartree
           prtden           0
           prteig           0
            prtwf           0
          spgroup         221
           symrel      1  0  0   0  1  0   0  0  1      -1  0  0   0 -1  0   0  0 -1
                      -1  0  0   0  1  0   0  0 -1       1  0  0   0 -1  0   0  0  1
                      -1  0  0   0 -1  0   0  0  1       1  0  0   0  1  0   0  0 -1
                       1  0  0   0 -1  0   0  0 -1      -1  0  0   0  1  0   0  0  1
                       0  1  0   1  0  0   0  0  1       0 -1  0  -1  0  0   0  0 -1
                       0 -1  0   1  0  0   0  0 -1       0  1  0  -1  0  0   0  0  1
                       0 -1  0  -1  0  0   0  0  1       0  1  0   1  0  0   0  0 -1
                       0  1  0  -1  0  0   0  0 -1       0 -1  0   1  0  0   0  0  1
                       0  0  1   1  0  0   0  1  0       0  0 -1  -1  0  0   0 -1  0
                       0  0 -1   1  0  0   0 -1  0       0  0  1  -1  0  0   0  1  0
                       0  0 -1  -1  0  0   0  1  0       0  0  1   1  0  0   0 -1  0
                       0  0  1  -1  0  0   0 -1  0       0  0 -1   1  0  0   0  1  0
                       1  0  0   0  0  1   0  1  0      -1  0  0   0  0 -1   0 -1  0
                      -1  0  0   0  0  1   0 -1  0       1  0  0   0  0 -1   0  1  0
                      -1  0  0   0  0 -1   0  1  0       1  0  0   0  0  1   0 -1  0
                       1  0  0   0  0 -1   0 -1  0      -1  0  0   0  0  1   0  1  0
                       0  1  0   0  0  1   1  0  0       0 -1  0   0  0 -1  -1  0  0
                       0 -1  0   0  0  1  -1  0  0       0  1  0   0  0 -1   1  0  0
                       0 -1  0   0  0 -1   1  0  0       0  1  0   0  0  1  -1  0  0
                       0  1  0   0  0 -1  -1  0  0       0 -1  0   0  0  1   1  0  0
                       0  0  1   0  1  0   1  0  0       0  0 -1   0 -1  0  -1  0  0
                       0  0 -1   0  1  0  -1  0  0       0  0  1   0 -1  0   1  0  0
                       0  0 -1   0 -1  0   1  0  0       0  0  1   0  1  0  -1  0  0
                       0  0  1   0 -1  0  -1  0  0       0  0 -1   0  1  0   1  0  0
           timopt          -3
           toldfe      1.00000000E-05 Hartree
           tsmear      2.00000000E-03 Hartree
            typat      1  1  1  1  1  1  1  1  1  1  1  1  1  1  1  1  1  1  1  1
                       1  1  1  1  1  1  1  1  1  1  1
  use_gemm_nonlop           1
           useylm           1
         wfoptalg         111
           xangst      2.0293945949E+00  2.0293945949E+00  0.0000000000E+00
                       2.0293945949E+00  0.0000000000E+00  2.0293945949E+00
                       0.0000000000E+00  2.0293945949E+00  2.0293945949E+00
                       0.0000000000E+00  0.0000000000E+00  4.0587891899E+00
                       2.0293945949E+00  2.0293945949E+00  4.0587891899E+00
                       2.0293945949E+00  0.0000000000E+00  6.0881837848E+00
                       0.0000000000E+00  2.0293945949E+00  6.0881837848E+00
                       0.0000000000E+00  4.0587891899E+00  0.0000000000E+00
                       2.0293945949E+00  6.0881837848E+00  0.0000000000E+00
                       2.0293945949E+00  4.0587891899E+00  2.0293945949E+00
                       0.0000000000E+00  6.0881837848E+00  2.0293945949E+00
                       0.0000000000E+00  4.0587891899E+00  4.0587891899E+00
                       2.0293945949E+00  6.0881837848E+00  4.0587891899E+00
                       2.0293945949E+00  4.0587891899E+00  6.0881837848E+00
                       0.0000000000E+00  6.0881837848E+00  6.0881837848E+00
                       4.0587891899E+00  0.0000000000E+00  0.0000000000E+00
                       6.0881837848E+00  2.0293945949E+00  0.0000000000E+00
                       6.0881837848E+00  0.0000000000E+00  2.0293945949E+00
                       4.0587891899E+00  2.0293945949E+00  2.0293945949E+00
                       4.0587891899E+00  0.0000000000E+00  4.0587891899E+00
                       6.0881837848E+00  2.0293945949E+00  4.0587891899E+00
                       6.0881837848E+00  0.0000000000E+00  6.0881837848E+00
                       4.0587891899E+00  2.0293945949E+00  6.0881837848E+00
                       4.0587891899E+00  4.0587891899E+00  0.0000000000E+00
                       6.0881837848E+00  6.0881837848E+00  0.0000000000E+00
                       6.0881837848E+00  4.0587891899E+00  2.0293945949E+00
                       4.0587891899E+00  6.0881837848E+00  2.0293945949E+00
                       4.0587891899E+00  4.0587891899E+00  4.0587891899E+00
                       6.0881837848E+00  6.0881837848E+00  4.0587891899E+00
                       6.0881837848E+00  4.0587891899E+00  6.0881837848E+00
                       4.0587891899E+00  6.0881837848E+00  6.0881837848E+00
            xcart      3.8350000000E+00  3.8350000000E+00  0.0000000000E+00
                       3.8350000000E+00  0.0000000000E+00  3.8350000000E+00
                       0.0000000000E+00  3.8350000000E+00  3.8350000000E+00
                       0.0000000000E+00  0.0000000000E+00  7.6700000000E+00
                       3.8350000000E+00  3.8350000000E+00  7.6700000000E+00
                       3.8350000000E+00  0.0000000000E+00  1.1505000000E+01
                       0.0000000000E+00  3.8350000000E+00  1.1505000000E+01
                       0.0000000000E+00  7.6700000000E+00  0.0000000000E+00
                       3.8350000000E+00  1.1505000000E+01  0.0000000000E+00
                       3.8350000000E+00  7.6700000000E+00  3.8350000000E+00
                       0.0000000000E+00  1.1505000000E+01  3.8350000000E+00
                       0.0000000000E+00  7.6700000000E+00  7.6700000000E+00
                       3.8350000000E+00  1.1505000000E+01  7.6700000000E+00
                       3.8350000000E+00  7.6700000000E+00  1.1505000000E+01
                       0.0000000000E+00  1.1505000000E+01  1.1505000000E+01
                       7.6700000000E+00  0.0000000000E+00  0.0000000000E+00
                       1.1505000000E+01  3.8350000000E+00  0.0000000000E+00
                       1.1505000000E+01  0.0000000000E+00  3.8350000000E+00
                       7.6700000000E+00  3.8350000000E+00  3.8350000000E+00
                       7.6700000000E+00  0.0000000000E+00  7.6700000000E+00
                       1.1505000000E+01  3.8350000000E+00  7.6700000000E+00
                       1.1505000000E+01  0.0000000000E+00  1.1505000000E+01
                       7.6700000000E+00  3.8350000000E+00  1.1505000000E+01
                       7.6700000000E+00  7.6700000000E+00  0.0000000000E+00
                       1.1505000000E+01  1.1505000000E+01  0.0000000000E+00
                       1.1505000000E+01  7.6700000000E+00  3.8350000000E+00
                       7.6700000000E+00  1.1505000000E+01  3.8350000000E+00
                       7.6700000000E+00  7.6700000000E+00  7.6700000000E+00
                       1.1505000000E+01  1.1505000000E+01  7.6700000000E+00
                       1.1505000000E+01  7.6700000000E+00  1.1505000000E+01
                       7.6700000000E+00  1.1505000000E+01  1.1505000000E+01
             xred      2.5000000000E-01  2.5000000000E-01  0.0000000000E+00
                       2.5000000000E-01  0.0000000000E+00  2.5000000000E-01
                       0.0000000000E+00  2.5000000000E-01  2.5000000000E-01
                       0.0000000000E+00  0.0000000000E+00  5.0000000000E-01
                       2.5000000000E-01  2.5000000000E-01  5.0000000000E-01
                       2.5000000000E-01  0.0000000000E+00  7.5000000000E-01
                       0.0000000000E+00  2.5000000000E-01  7.5000000000E-01
                       0.0000000000E+00  5.0000000000E-01  0.0000000000E+00
                       2.5000000000E-01  7.5000000000E-01  0.0000000000E+00
                       2.5000000000E-01  5.0000000000E-01  2.5000000000E-01
                       0.0000000000E+00  7.5000000000E-01  2.5000000000E-01
                       0.0000000000E+00  5.0000000000E-01  5.0000000000E-01
                       2.5000000000E-01  7.5000000000E-01  5.0000000000E-01
                       2.5000000000E-01  5.0000000000E-01  7.5000000000E-01
                       0.0000000000E+00  7.5000000000E-01  7.5000000000E-01
                       5.0000000000E-01  0.0000000000E+00  0.0000000000E+00
                       7.5000000000E-01  2.5000000000E-01  0.0000000000E+00
                       7.5000000000E-01  0.0000000000E+00  2.5000000000E-01
                       5.0000000000E-01  2.5000000000E-01  2.5000000000E-01
                       5.0000000000E-01  0.0000000000E+00  5.0000000000E-01
                       7.5000000000E-01  2.5000000000E-01  5.0000000000E-01
                       7.5000000000E-01  0.0000000000E+00  7.5000000000E-01
                       5.0000000000E-01  2.5000000000E-01  7.5000000000E-01
                       5.0000000000E-01  5.0000000000E-01  0.0000000000E+00
                       7.5000000000E-01  7.5000000000E-01  0.0000000000E+00
                       7.5000000000E-01  5.0000000000E-01  2.5000000000E-01
                       5.0000000000E-01  7.5000000000E-01  2.5000000000E-01
                       5.0000000000E-01  5.0000000000E-01  5.0000000000E-01
                       7.5000000000E-01  7.5000000000E-01  5.0000000000E-01
                       7.5000000000E-01  5.0000000000E-01  7.5000000000E-01
                       5.0000000000E-01  7.5000000000E-01  7.5000000000E-01
            znucl       56.00000
 
================================================================================
 
 chkinp: Checking input parameters for consistency.
 
================================================================================
== DATASET  1 ==================================================================
-   nproc =    1
 
 Exchange-correlation functional for the present dataset will be:
  LDA: Perdew-Wang 92 LSD fit to Ceperley-Alder data - ixc=7
 Citation for XC functional:
  J.P.Perdew and Y.Wang, PRB 45, 13244 (1992)
 
 Real(R)+Recip(G) space primitive vectors, cartesian coordinates (Bohr,Bohr^-1):
 R(1)= 15.3400000  0.0000000  0.0000000  G(1)=  0.0651890  0.0000000  0.0000000
 R(2)=  0.0000000 15.3400000  0.0000000  G(2)=  0.0000000  0.0651890  0.0000000
 R(3)=  0.0000000  0.0000000 15.3400000  G(3)=  0.0000000  0.0000000  0.0651890
 Unit cell volume ucvol=  3.6097413E+03 bohr^3
 Angles (23,13,12)=  9.00000000E+01  9.00000000E+01  9.00000000E+01 degrees
 
 Coarse grid specifications (used for wave-functions):
 
 getcut: wavevector=  0.0000  0.0000  0.0000  ngfft=  40  40  40
         ecut(hartree)=      8.000   => boxcut(ratio)=   2.04797
 
 Fine grid specifications (used for densities):
 
 getcut: wavevector=  0.0000  0.0000  0.0000  ngfft=  45  45  45
         ecut(hartree)=     10.000   => boxcut(ratio)=   2.01494
 
--- Pseudopotential description ------------------------------------------------
- pspini: atom type   1  psp file is ../../../Psps_for_tests/ba.hpc.paw.xml
- pspatm: opening atomic psp file    ../../../Psps_for_tests/ba.hpc.paw.xml
- pspatm : Reading pseudopotential header in XML form from ../../../Psps_for_tests/ba.hpc.paw.xml
 Pseudopotential format is: paw10
 basis_size (lnmax)=  6 (lmn_size= 18), orbitals=   0   0   1   1   2   2
 Spheres core radius: rc_sph= 2.31518568
 1 radial meshes are used:
  - mesh 1: r(i)=AA*[exp(BB*(i-1))-1], size=1500 , AA= 0.15658E-03 BB= 0.87685E-02
 Shapefunction is SIN type: shapef(r)=[sin(pi*r/rshp)/(pi*r/rshp)]**2
 Radius for shape functions =  2.01210979
 mmax= 1500
 Radial grid used for partial waves is grid 1
 Radial grid used for projectors is grid 1
 Radial grid used for (t)core density is grid 1
 Radial grid used for Vloc is grid 1
 Radial grid used for pseudo valence density is grid 1
 Mesh size for Vloc has been set to 1341 to avoid numerical noise.
 Compensation charge density is not taken into account in XC energy/potential
 pspatm: atomic psp has been read  and splines computed
 
   5.70955898E+05                                ecore*ucvol(ha*bohr**3)
--------------------------------------------------------------------------------
 
_setup2: Arith. and geom. avg. npw (full set) are    3887.000    3887.000
 
================================================================================
 
     iter   Etot(hartree)      deltaE(h)  residm     nres2
 ETOT  1  -768.07074376805    -7.681E+02 5.387E+00 1.569E+01
 ETOT  2  -791.56286967933    -2.349E+01 2.172E-02 1.610E+00
 ETOT  3  -796.71290554319    -5.150E+00 1.542E+00 1.412E+00
 ETOT  4  -797.59247528687    -8.796E-01 5.092E+00 2.085E-01
 ETOT  5  -799.65340439453    -2.061E+00 1.763E-02 3.018E-01
 
 Cartesian components of stress tensor (hartree/bohr^3)
  sigma(1 1)= -4.32975505E-03  sigma(3 2)=  0.00000000E+00
  sigma(2 2)= -4.32975505E-03  sigma(3 1)=  0.00000000E+00
  sigma(3 3)= -4.32975505E-03  sigma(2 1)=  0.00000000E+00
 
 
 scprqt:  WARNING -
  nstep=    5 was not enough SCF cycles to converge;
  maximum energy difference=  2.061E+00 exceeds toldfe=  1.000E-05
 
 Integrated electronic density in atomic spheres:
 ------------------------------------------------
 Atom  Sphere_radius  Integrated_density
    1        2.31519          7.03990562
    2        2.31519          7.03990562
    3        2.31519          7.03990562
    4        2.31519          7.00414007
    5        2.31519          7.12407939
    6        2.31519          7.03990562
    7        2.31519          7.03990562
    8        2.31519          7.00414007
    9        2.31519          7.03990562
   10        2.31519          7.12407939
   11        2.31519          7.03990562
   12        2.31519          6.98088312
   13        2.31519          7.12407939
   14        2.31519          7.12407939
   15        2.31519          7.03990562
   16        2.31519          7.00414007
   17        2.31519          7.03990562
   18        2.31519          7.03990562
   19        2.31519          7.12407939
   20        2.31519          6.98088312
   21        2.31519          7.12407939
   22        2.31519          7.03990562
   23        2.31519          7.12407939
   24        2.31519          6.98088312
   25        2.31519          7.03990562
   26        2.31519          7.12407939
   27        2.31519          7.12407939
   28        2.31519          7.09174924
   29        2.31519          7.12407939
   30        2.31519          7.12407939
   31        2.31519          7.12407939
 
 PAW TEST:
 ==== Compensation charge inside spheres ============
 The following values must be close to each other ...
 Compensation charge over spherical meshes =    -83.284591194984415
 Compensation charge over fine fft grid    =    -83.689474314824778
 
 ==== Results concerning PAW augmentation regions ====
 
 Total pseudopotential strength Dij (hartree):
 Atom #  1
   0.41579   0.06348   0.00115   0.00000   0.00115   0.00009   0.00000   0.00009  -0.00028   0.00000   0.00013   0.00000 ...
   0.06348   0.00886   0.00023   0.00000   0.00023   0.00014   0.00000   0.00014  -0.00007   0.00000   0.00003   0.00000 ...
   0.00115   0.00023  -0.17360   0.00000  -0.00039   0.00031   0.00000  -0.00019   0.00031   0.00000  -0.00019   0.00000 ...
   0.00000   0.00000   0.00000  -0.17327   0.00000   0.00000   0.00047   0.00000   0.00000   0.00022   0.00000   0.00022 ...
   0.00115   0.00023  -0.00039   0.00000  -0.17360  -0.00019   0.00000   0.00031   0.00031   0.00000  -0.00019   0.00000 ...
   0.00009   0.00014   0.00031   0.00000  -0.00019  -1.14522   0.00000  -0.00053   0.00024   0.00000  -0.00015   0.00000 ...
   0.00000   0.00000   0.00000   0.00047   0.00000   0.00000  -1.14478   0.00000   0.00000   0.00013   0.00000   0.00013 ...
   0.00009   0.00014  -0.00019   0.00000   0.00031  -0.00053   0.00000  -1.14522   0.00024   0.00000  -0.00015   0.00000 ...
  -0.00028  -0.00007   0.00031   0.00000   0.00031   0.00024   0.00000   0.00024  -0.03057   0.00000   0.00007   0.00000 ...
   0.00000   0.00000   0.00000   0.00022   0.00000   0.00000   0.00013   0.00000   0.00000  -0.03052   0.00000  -0.00005 ...
   0.00013   0.00003  -0.00019   0.00000  -0.00019  -0.00015   0.00000  -0.00015   0.00007   0.00000  -0.03052   0.00000 ...
   0.00000   0.00000   0.00000   0.00022   0.00000   0.00000   0.00013   0.00000   0.00000  -0.00005   0.00000  -0.03052 ...
   ...  only 12  components have been written...
 Atom # 31
   0.41535   0.06350   0.00068   0.00068   0.00000  -0.00001  -0.00001   0.00000   0.00000  -0.00002  -0.00003   0.00000 ...
   0.06350   0.00889   0.00013   0.00013   0.00000   0.00007   0.00007   0.00000   0.00000  -0.00000  -0.00001   0.00000 ...
   0.00068   0.00013  -0.17317  -0.00002   0.00000   0.00107  -0.00000   0.00000   0.00000   0.00016  -0.00008   0.00000 ...
   0.00068   0.00013  -0.00002  -0.17317   0.00000  -0.00000   0.00107   0.00000   0.00000   0.00016   0.00015   0.00000 ...
   0.00000   0.00000   0.00000   0.00000  -0.17304   0.00000   0.00000   0.00113   0.00015   0.00000   0.00000   0.00015 ...
  -0.00001   0.00007   0.00107  -0.00000   0.00000  -1.14438  -0.00001   0.00000   0.00000   0.00009  -0.00004   0.00000 ...
  -0.00001   0.00007  -0.00000   0.00107   0.00000  -0.00001  -1.14438   0.00000   0.00000   0.00009   0.00009   0.00000 ...
   0.00000   0.00000   0.00000   0.00000   0.00113   0.00000   0.00000  -1.14420   0.00009   0.00000   0.00000   0.00009 ...
   0.00000   0.00000   0.00000   0.00000   0.00015   0.00000   0.00000   0.00009  -0.03036   0.00000   0.00000  -0.00000 ...
  -0.00002  -0.00000   0.00016   0.00016   0.00000   0.00009   0.00009   0.00000   0.00000  -0.03038  -0.00000   0.00000 ...
  -0.00003  -0.00001  -0.00008   0.00015   0.00000  -0.00004   0.00009   0.00000   0.00000  -0.00000  -0.03039   0.00000 ...
   0.00000   0.00000   0.00000   0.00000   0.00015   0.00000   0.00000   0.00009  -0.00000   0.00000   0.00000  -0.03036 ...
   ...  only 12  components have been written...
 
 
 Augmentation waves occupancies Rhoij:
 Atom #  1
   2.09920  -0.15539   0.00148   0.00000   0.00148  -0.00098   0.00000  -0.00098   0.01564   0.00000  -0.00932   0.00000 ...
  -0.15539   0.36348  -0.00096   0.00000  -0.00096   0.00234   0.00000   0.00234  -0.04438   0.00000   0.01292   0.00000 ...
   0.00148  -0.00096   1.87597   0.00000   0.01505   0.00973   0.00000  -0.00186   0.02107   0.00000  -0.01939   0.00000 ...
   0.00000   0.00000   0.00000   1.88964   0.00000   0.00000   0.00864   0.00000   0.00000   0.00352   0.00000   0.00352 ...
   0.00148  -0.00096   0.01505   0.00000   1.87597  -0.00186   0.00000   0.00973   0.02107   0.00000  -0.01939   0.00000 ...
  -0.00098   0.00234   0.00973   0.00000  -0.00186   0.00168   0.00000  -0.00002   0.00041   0.00000   0.00045   0.00000 ...
   0.00000   0.00000   0.00000   0.00864   0.00000   0.00000   0.00199   0.00000   0.00000   0.00142   0.00000   0.00142 ...
  -0.00098   0.00234  -0.00186   0.00000   0.00973  -0.00002   0.00000   0.00168   0.00041   0.00000   0.00045   0.00000 ...
   0.01564  -0.04438   0.02107   0.00000   0.02107   0.00041   0.00000   0.00041   0.42431   0.00000   0.01640   0.00000 ...
   0.00000   0.00000   0.00000   0.00352   0.00000   0.00000   0.00142   0.00000   0.00000   0.41704   0.00000   0.01064 ...
  -0.00932   0.01292  -0.01939   0.00000  -0.01939   0.00045   0.00000   0.00045   0.01640   0.00000   0.55486   0.00000 ...
   0.00000   0.00000   0.00000   0.00352   0.00000   0.00000   0.00142   0.00000   0.00000   0.01064   0.00000   0.41704 ...
   ...  only 12  components have been written...
 Atom # 31
   2.10893  -0.15892  -0.00262  -0.00262   0.00000   0.00009   0.00009   0.00000   0.00000  -0.00011   0.00304   0.00000 ...
  -0.15892   0.35658   0.00501   0.00501   0.00000   0.00001   0.00001   0.00000   0.00000  -0.00339  -0.00923   0.00000 ...
  -0.00262   0.00501   1.86113  -0.00236   0.00000   0.01151   0.00021   0.00000   0.00000   0.00700  -0.00594   0.00000 ...
  -0.00262   0.00501  -0.00236   1.86113   0.00000   0.00021   0.01151   0.00000   0.00000   0.00700   0.00297   0.00000 ...
   0.00000   0.00000   0.00000   0.00000   1.88119   0.00000   0.00000   0.00963   0.00410   0.00000   0.00000   0.00410 ...
   0.00009   0.00001   0.01151   0.00021   0.00000   0.00178  -0.00002   0.00000   0.00000   0.00026   0.00027   0.00000 ...
   0.00009   0.00001   0.00021   0.01151   0.00000  -0.00002   0.00178   0.00000   0.00000   0.00026   0.00042   0.00000 ...
   0.00000   0.00000   0.00000   0.00000   0.00963   0.00000   0.00000   0.00199   0.00042   0.00000   0.00000   0.00042 ...
   0.00000   0.00000   0.00000   0.00000   0.00410   0.00000   0.00000   0.00042   0.47174   0.00000   0.00000   0.00211 ...
  -0.00011  -0.00339   0.00700   0.00700   0.00000   0.00026   0.00026   0.00000   0.00000   0.44817   0.01242   0.00000 ...
   0.00304  -0.00923  -0.00594   0.00297   0.00000   0.00027   0.00042   0.00000   0.00000   0.01242   0.57761   0.00000 ...
   0.00000   0.00000   0.00000   0.00000   0.00410   0.00000   0.00000   0.00042   0.00211   0.00000   0.00000   0.47174 ...
   ...  only 12  components have been written...
 
 
================================================================================
 
 ----iterations are completed or convergence reached----
 
 Mean square residual over all n,k,spin=   10.978E-04; max=  17.632E-03
 reduced coordinates (array xred) for   31 atoms
       0.250000000000      0.250000000000      0.000000000000
       0.250000000000      0.000000000000      0.250000000000
       0.000000000000      0.250000000000      0.250000000000
       0.000000000000      0.000000000000      0.500000000000
       0.250000000000      0.250000000000      0.500000000000
       0.250000000000      0.000000000000      0.750000000000
       0.000000000000      0.250000000000      0.750000000000
       0.000000000000      0.500000000000      0.000000000000
       0.250000000000      0.750000000000      0.000000000000
       0.250000000000      0.500000000000      0.250000000000
       0.000000000000      0.750000000000      0.250000000000
       0.000000000000      0.500000000000      0.500000000000
       0.250000000000      0.750000000000      0.500000000000
       0.250000000000      0.500000000000      0.750000000000
       0.000000000000      0.750000000000      0.750000000000
       0.500000000000      0.000000000000      0.000000000000
       0.750000000000      0.250000000000      0.000000000000
       0.750000000000      0.000000000000      0.250000000000
       0.500000000000      0.250000000000      0.250000000000
       0.500000000000      0.000000000000      0.500000000000
       0.750000000000      0.250000000000      0.500000000000
       0.750000000000      0.000000000000      0.750000000000
       0.500000000000      0.250000000000      0.750000000000
       0.500000000000      0.500000000000      0.000000000000
       0.750000000000      0.750000000000      0.000000000000
       0.750000000000      0.500000000000      0.250000000000
       0.500000000000      0.750000000000      0.250000000000
       0.500000000000      0.500000000000      0.500000000000
       0.750000000000      0.750000000000      0.500000000000
       0.750000000000      0.500000000000      0.750000000000
       0.500000000000      0.750000000000      0.750000000000
 rms dE/dt=  3.1587E-01; max dE/dt=  5.7116E-01; dE/dt below (all hartree)
    1       0.571163586809      0.571163586809      0.000000000000
    2       0.571163586809     -0.000000000000      0.571163586809
    3      -0.000000000000      0.571163586809      0.571163586809
    4       0.000000000000      0.000000000000      0.000000000000
    5      -0.245733001914     -0.245733001914      0.000000000000
    6       0.571163586809     -0.000000000000     -0.571163586809
    7      -0.000000000000      0.571163586809     -0.571163586809
    8       0.000000000000      0.000000000000      0.000000000000
    9       0.571163586809     -0.571163586809     -0.000000000000
   10      -0.245733001914      0.000000000000     -0.245733001914
   11      -0.000000000000     -0.571163586809      0.571163586809
   12       0.000000000000      0.000000000000      0.000000000000
   13      -0.245733001914      0.245733001914     -0.000000000000
   14      -0.245733001914     -0.000000000000      0.245733001914
   15       0.000000000000     -0.571163586809     -0.571163586809
   16       0.000000000000      0.000000000000      0.000000000000
   17      -0.571163586809      0.571163586809     -0.000000000000
   18      -0.571163586809     -0.000000000000      0.571163586809
   19       0.000000000000     -0.245733001914     -0.245733001914
   20       0.000000000000      0.000000000000      0.000000000000
   21       0.245733001914     -0.245733001914     -0.000000000000
   22      -0.571163586809      0.000000000000     -0.571163586809
   23       0.000000000000     -0.245733001914      0.245733001914
   24       0.000000000000      0.000000000000      0.000000000000
   25      -0.571163586809     -0.571163586809     -0.000000000000
   26       0.245733001914      0.000000000000     -0.245733001914
   27      -0.000000000000      0.245733001914     -0.245733001914
   28       0.000000000000      0.000000000000      0.000000000000
   29       0.245733001914      0.245733001914     -0.000000000000
   30       0.245733001914     -0.000000000000      0.245733001914
   31      -0.000000000000      0.245733001914      0.245733001914
 
 cartesian coordinates (angstrom) at end:
    1      2.02939459494265     2.02939459494265     0.00000000000000
    2      2.02939459494265     0.00000000000000     2.02939459494265
    3      0.00000000000000     2.02939459494265     2.02939459494265
    4      0.00000000000000     0.00000000000000     4.05878918988530
    5      2.02939459494265     2.02939459494265     4.05878918988530
    6      2.02939459494265     0.00000000000000     6.08818378482795
    7      0.00000000000000     2.02939459494265     6.08818378482795
    8      0.00000000000000     4.05878918988530     0.00000000000000
    9      2.02939459494265     6.08818378482795     0.00000000000000
   10      2.02939459494265     4.05878918988530     2.02939459494265
   11      0.00000000000000     6.08818378482795     2.02939459494265
   12      0.00000000000000     4.05878918988530     4.05878918988530
   13      2.02939459494265     6.08818378482795     4.05878918988530
   14      2.02939459494265     4.05878918988530     6.08818378482795
   15      0.00000000000000     6.08818378482795     6.08818378482795
   16      4.05878918988530     0.00000000000000     0.00000000000000
   17      6.08818378482795     2.02939459494265     0.00000000000000
   18      6.08818378482795     0.00000000000000     2.02939459494265
   19      4.05878918988530     2.02939459494265     2.02939459494265
   20      4.05878918988530     0.00000000000000     4.05878918988530
   21      6.08818378482795     2.02939459494265     4.05878918988530
   22      6.08818378482795     0.00000000000000     6.08818378482795
   23      4.05878918988530     2.02939459494265     6.08818378482795
   24      4.05878918988530     4.05878918988530     0.00000000000000
   25      6.08818378482795     6.08818378482795     0.00000000000000
   26      6.08818378482795     4.05878918988530     2.02939459494265
   27      4.05878918988530     6.08818378482795     2.02939459494265
   28      4.05878918988530     4.05878918988530     4.05878918988530
   29      6.08818378482795     6.08818378482795     4.05878918988530
   30      6.08818378482795     4.05878918988530     6.08818378482795
   31      4.05878918988530     6.08818378482795     6.08818378482795
 
 cartesian forces (hartree/bohr) at end:
    1     -0.03723361061335    -0.03723361061335    -0.00000000000000
    2     -0.03723361061335    -0.00000000000000    -0.03723361061335
    3     -0.00000000000000    -0.03723361061335    -0.03723361061335
    4     -0.00000000000000    -0.00000000000000    -0.00000000000000
    5      0.01601910051593     0.01601910051593    -0.00000000000000
    6     -0.03723361061335    -0.00000000000000     0.03723361061335
    7     -0.00000000000000    -0.03723361061335     0.03723361061335
    8     -0.00000000000000    -0.00000000000000    -0.00000000000000
    9     -0.03723361061335     0.03723361061335    -0.00000000000000
   10      0.01601910051593    -0.00000000000000     0.01601910051593
   11     -0.00000000000000     0.03723361061335    -0.03723361061335
   12     -0.00000000000000    -0.00000000000000    -0.00000000000000
   13      0.01601910051593    -0.01601910051593    -0.00000000000000
   14      0.01601910051593    -0.00000000000000    -0.01601910051593
   15     -0.00000000000000     0.03723361061335     0.03723361061335
   16     -0.00000000000000    -0.00000000000000    -0.00000000000000
   17      0.03723361061335    -0.03723361061335    -0.00000000000000
   18      0.03723361061335    -0.00000000000000    -0.03723361061335
   19     -0.00000000000000     0.01601910051593     0.01601910051593
   20     -0.00000000000000    -0.00000000000000    -0.00000000000000
   21     -0.01601910051593     0.01601910051593    -0.00000000000000
   22      0.03723361061335    -0.00000000000000     0.03723361061335
   23     -0.00000000000000     0.01601910051593    -0.01601910051593
   24     -0.00000000000000    -0.00000000000000    -0.00000000000000
   25      0.03723361061335     0.03723361061335    -0.00000000000000
   26     -0.01601910051593    -0.00000000000000     0.01601910051593
   27     -0.00000000000000    -0.01601910051593     0.01601910051593
   28     -0.00000000000000    -0.00000000000000    -0.00000000000000
   29     -0.01601910051593    -0.01601910051593    -0.00000000000000
   30     -0.01601910051593    -0.00000000000000    -0.01601910051593
   31     -0.00000000000000    -0.01601910051593    -0.01601910051593
 frms,max,avg= 2.0590968E-02 3.7233611E-02   0.000E+00  0.000E+00  0.000E+00 h/b
 
 cartesian forces (eV/Angstrom) at end:
    1     -1.91462907783461    -1.91462907783461    -0.00000000000000
    2     -1.91462907783461    -0.00000000000000    -1.91462907783461
    3     -0.00000000000000    -1.91462907783461    -1.91462907783461
    4     -0.00000000000000    -0.00000000000000    -0.00000000000000
    5      0.82373519901258     0.82373519901258    -0.00000000000000
    6     -1.91462907783461    -0.00000000000000     1.91462907783461
    7     -0.00000000000000    -1.91462907783461     1.91462907783461
    8     -0.00000000000000    -0.00000000000000    -0.00000000000000
    9     -1.91462907783461     1.91462907783461    -0.00000000000000
   10      0.82373519901258    -0.00000000000000     0.82373519901258
   11     -0.00000000000000     1.91462907783461    -1.91462907783461
   12     -0.00000000000000    -0.00000000000000    -0.00000000000000
   13      0.82373519901258    -0.82373519901258    -0.00000000000000
   14      0.82373519901258    -0.00000000000000    -0.82373519901258
   15     -0.00000000000000     1.91462907783461     1.91462907783461
   16     -0.00000000000000    -0.00000000000000    -0.00000000000000
   17      1.91462907783461    -1.91462907783461    -0.00000000000000
   18      1.91462907783461    -0.00000000000000    -1.91462907783461
   19     -0.00000000000000     0.82373519901258     0.82373519901258
   20     -0.00000000000000    -0.00000000000000    -0.00000000000000
   21     -0.82373519901258     0.82373519901258    -0.00000000000000
   22      1.91462907783461    -0.00000000000000     1.91462907783461
   23     -0.00000000000000     0.82373519901258    -0.82373519901258
   24     -0.00000000000000    -0.00000000000000    -0.00000000000000
   25      1.91462907783461     1.91462907783461    -0.00000000000000
   26     -0.82373519901258    -0.00000000000000     0.82373519901258
   27     -0.00000000000000    -0.82373519901258     0.82373519901258
   28     -0.00000000000000    -0.00000000000000    -0.00000000000000
   29     -0.82373519901258    -0.82373519901258    -0.00000000000000
   30     -0.82373519901258    -0.00000000000000    -0.82373519901258
   31     -0.00000000000000    -0.82373519901258    -0.82373519901258
 frms,max,avg= 1.0588301E+00 1.9146291E+00   0.000E+00  0.000E+00  0.000E+00 e/A
 length scales= 15.340000000000 15.340000000000 15.340000000000 bohr
              =  8.117578379771  8.117578379771  8.117578379771 angstroms
 Fermi (or HOMO) energy (hartree) =   0.41128   Average Vxc (hartree)=  -0.49538
 Eigenvalues (hartree) for nkpt=   1  k points:
 kpt#   1, nband=192, wtk=  1.00000, kpt=  0.0000  0.0000  0.0000 (reduced coord)
  -0.78333   -0.72355   -0.72355   -0.72177   -0.72177   -0.72177   -0.70770   -0.67494
  -0.67494   -0.67494   -0.67350   -0.67350   -0.67350   -0.67280   -0.67280   -0.67064
  -0.67064   -0.67064   -0.66451   -0.66451   -0.66451   -0.65995   -0.63528   -0.61714
  -0.61714   -0.61382   -0.61382   -0.61382   -0.61288   -0.61288   -0.61070   -0.33730
  -0.32989   -0.32989   -0.32989   -0.29932   -0.29932   -0.29932   -0.23631   -0.23624
  -0.23624   -0.23624   -0.23408   -0.23408   -0.23408   -0.23321   -0.23321   -0.23321
  -0.22991   -0.22991   -0.22957   -0.22957   -0.22957   -0.22687   -0.22687   -0.22687
  -0.22673   -0.22673   -0.22673   -0.19446   -0.19446   -0.19446   -0.16328   -0.16328
  -0.16147   -0.16147   -0.16147   -0.15722   -0.15311   -0.15311   -0.15311   -0.15001
  -0.14964   -0.14964   -0.14964   -0.13790   -0.13790   -0.13536   -0.13536   -0.13536
  -0.12968   -0.12379   -0.12379   -0.10904   -0.10904   -0.10904   -0.09862   -0.09862
  -0.09862   -0.07026   -0.07026   -0.07026   -0.04082   -0.04081   -0.04081   -0.03724
  -0.03724   -0.03724   -0.03385   -0.03385   -0.03384   -0.02189   -0.02189   -0.02189
  -0.00495   -0.00475   -0.00475   -0.00474   -0.00151   -0.00150   -0.00150    0.00042
   0.00043    0.00274    0.00275    0.00428    0.00428    0.00429    0.00608    0.00608
   0.00609    0.05240    0.05242    0.05242    0.21878    0.23524    0.23577    0.24492
   0.24560    0.24802    0.32949    0.33891    0.34418    0.34832    0.35258    0.35833
   0.36581    0.37246    0.37474    0.37611    0.38082    0.38112    0.38337    0.38548
   0.38630    0.38958    0.39021    0.39158    0.39357    0.39536    0.39825    0.40106
   0.40220    0.40504    0.40928    0.41381    0.41558    0.42312    0.42432    0.42941
   0.43771    0.45373    0.46233    0.46830    0.46999    0.47449    0.47857    0.48849
   0.49149    0.49588    0.50241    0.50400    0.50768    0.51111    0.51606    0.51892
   0.52988    0.53550    0.54081    0.54411    0.54595    0.55101    0.56158    0.56511
   0.56938    0.57430    0.57947    0.58889    0.59155    0.59917    0.60799    0.62159
      occupation numbers for kpt#   1
   2.00000    2.00000    2.00000    2.00000    2.00000    2.00000    2.00000    2.00000
   2.00000    2.00000    2.00000    2.00000    2.00000    2.00000    2.00000    2.00000
   2.00000    2.00000    2.00000    2.00000    2.00000    2.00000    2.00000    2.00000
   2.00000    2.00000    2.00000    2.00000    2.00000    2.00000    2.00000    2.00000
   2.00000    2.00000    2.00000    2.00000    2.00000    2.00000    2.00000    2.00000
   2.00000    2.00000    2.00000    2.00000    2.00000    2.00000    2.00000    2.00000
   2.00000    2.00000    2.00000    2.00000    2.00000    2.00000    2.00000    2.00000
   2.00000    2.00000    2.00000    2.00000    2.00000    2.00000    2.00000    2.00000
   2.00000    2.00000    2.00000    2.00000    2.00000    2.00000    2.00000    2.00000
   2.00000    2.00000    2.00000    2.00000    2.00000    2.00000    2.00000    2.00000
   2.00000    2.00000    2.00000    2.00000    2.00000    2.00000    2.00000    2.00000
   2.00000    2.00000    2.00000    2.00000    2.00000    2.00000    2.00000    2.00000
   2.00000    2.00000    2.00000    2.00000    2.00000    2.00000    2.00000    2.00000
   2.00000    2.00000    2.00000    2.00000    2.00000    2.00000    2.00000    2.00000
   2.00000    2.00000    2.00000    2.00000    2.00000    2.00000    2.00000    2.00000
   2.00000    2.00000    2.00000    2.00000    2.00000    2.00000    2.00000    2.00000
   2.00000    2.00000    2.00000    2.00000    2.00000    2.00000    2.00000    2.00000
   2.00000    2.00000    2.00000    2.00000    2.00000    2.00000    2.00000    2.00000
   1.99999    1.99996    1.99995    1.99989    1.99972    1.99930    1.99705    1.98800
   1.97894    1.91550    1.46244    0.44159    0.20912    0.00537    0.00294    0.00023
   0.00000    0.00000    0.00000    0.00000    0.00000    0.00000    0.00000    0.00000
   0.00000    0.00000    0.00000    0.00000    0.00000    0.00000    0.00000    0.00000
   0.00000    0.00000    0.00000    0.00000    0.00000    0.00000    0.00000    0.00000
   0.00000    0.00000    0.00000    0.00000    0.00000    0.00000    0.00000    0.00000
 
--------------------------------------------------------------------------------
 Components of total free energy (in Hartree) :
 
    Kinetic energy  =  3.07148009696487E+02
    Hartree energy  =  3.62824324187162E+01
    XC energy       = -1.88834553567752E+02
    Ewald energy    = -9.05896420881061E+02
    PspCore energy  =  1.58170863145425E+02
    Loc. psp. energy= -1.22240879961461E+02
    Spherical terms = -8.48228106034749E+01
    >>>>> Internal E= -8.00193359753121E+02
 
    -kT*entropy     = -7.05096450349299E-03
    >>>>>>>>> Etotal= -8.00200410717624E+02
 
 "Double-counting" decomposition of free energy:
    Band energy     = -4.32739887927042E+01
    Ewald energy    =-9.05896420881061E+02
    PspCore energy  =  1.58170863145425E+02
    Dble-C XC-energy=  1.75304166210034E+01
    Spherical terms = -2.61772235226935E+01
    >>>>> Internal E= -7.99646353430030E+02
 
    -kT*entropy     = -7.05096450349299E-03
    >>>> Etotal (DC)= -7.99653404394534E+02
 
  >Total energy in eV           = -2.17745605409669E+04
  >Total DC energy in eV        = -2.17596757419355E+04
--------------------------------------------------------------------------------
 
 
 
 Cartesian components of stress tensor (hartree/bohr^3)
  sigma(1 1)= -4.32975505E-03  sigma(3 2)=  0.00000000E+00
  sigma(2 2)= -4.32975505E-03  sigma(3 1)=  0.00000000E+00
  sigma(3 3)= -4.32975505E-03  sigma(2 1)=  0.00000000E+00
 
-Cartesian components of stress tensor (GPa)         [Pressure=  1.2739E+02 GPa]
- sigma(1 1)= -1.27385770E+02  sigma(3 2)=  0.00000000E+00
- sigma(2 2)= -1.27385770E+02  sigma(3 1)=  0.00000000E+00
- sigma(3 3)= -1.27385770E+02  sigma(2 1)=  0.00000000E+00
 
== END DATASET(S) ==============================================================
================================================================================
  
 -outvars: echo values of variables after computation  --------
-          iomode           1
            acell      1.5340000000E+01  1.5340000000E+01  1.5340000000E+01 Bohr
              amu      1.37327000E+02
           bandpp         192
      chksymbreak           0
     densfor_pred           6
             ecut      8.00000000E+00 Hartree
           etotal     -7.9965340439E+02
            fcart     -3.7233610613E-02 -3.7233610613E-02 -3.3575294375E-19
                      -3.7233610613E-02 -1.1191762114E-19 -3.7233610613E-02
                      -1.1191764138E-18 -3.7233610613E-02 -3.7233610613E-02
                      -1.1191764363E-18 -1.1191764361E-19 -3.3575293083E-19
                       1.6019100516E-02  1.6019100516E-02 -3.3575294094E-19
                      -3.7233610613E-02 -1.1191763912E-19  3.7233610613E-02
                      -1.1191764318E-18 -3.7233610613E-02  3.7233610613E-02
                      -1.1191764363E-18 -1.1191764361E-19 -3.3575293083E-19
                      -3.7233610613E-02  3.7233610613E-02 -3.3575292615E-19
                       1.6019100516E-02 -1.1191765260E-19  1.6019100516E-02
                      -1.1191764318E-18  3.7233610613E-02 -3.7233610613E-02
                      -1.1191764363E-18 -1.1191764361E-19 -3.3575293083E-19
                       1.6019100516E-02 -1.6019100516E-02 -3.3575292549E-19
                       1.6019100516E-02 -1.1191763687E-19 -1.6019100516E-02
                      -1.1191764408E-18  3.7233610613E-02  3.7233610613E-02
                      -1.1191764363E-18 -1.1191764361E-19 -3.3575293083E-19
                       3.7233610613E-02 -3.7233610613E-02 -3.3575292653E-19
                       3.7233610613E-02 -1.1191763912E-19 -3.7233610613E-02
                      -1.1191764408E-18  1.6019100516E-02  1.6019100516E-02
                      -1.1191764363E-18 -1.1191764361E-19 -3.3575293083E-19
                      -1.6019100516E-02  1.6019100516E-02 -3.3575291821E-19
                       3.7233610613E-02 -1.1191764810E-19  3.7233610613E-02
                      -1.1191764452E-18  1.6019100516E-02 -1.6019100516E-02
                      -1.1191764363E-18 -1.1191764361E-19 -3.3575293083E-19
                       3.7233610613E-02  3.7233610613E-02 -3.3575291792E-19
                      -1.6019100516E-02 -1.1191765035E-19  1.6019100516E-02
                      -1.1191764273E-18 -1.6019100516E-02  1.6019100516E-02
                      -1.1191764363E-18 -1.1191764361E-19 -3.3575293083E-19
                      -1.6019100516E-02 -1.6019100516E-02 -3.3575292072E-19
                      -1.6019100516E-02 -1.1191763462E-19 -1.6019100516E-02
                      -1.1191764318E-18 -1.6019100516E-02 -1.6019100516E-02
-          fftalg         312
           istwfk        2
              ixc           7
           kptopt           0
P           mkmem           1
            natom          31
            nband         192
            ngfft          40      40      40
          ngfftdg          45      45      45
             nkpt           1
            nline           6
           nnsclo           1
            nstep           5
             nsym          48
           ntypat           1
              occ      2.000000  2.000000  2.000000  2.000000  2.000000  2.000000
                       2.000000  2.000000  2.000000  2.000000  2.000000  2.000000
                       2.000000  2.000000  2.000000  2.000000  2.000000  2.000000
                       2.000000  2.000000  2.000000  2.000000  2.000000  2.000000
                       2.000000  2.000000  2.000000  2.000000  2.000000  2.000000
                       2.000000  2.000000  2.000000  2.000000  2.000000  2.000000
                       2.000000  2.000000  2.000000  2.000000  2.000000  2.000000
                       2.000000  2.000000  2.000000  2.000000  2.000000  2.000000
                       2.000000  2.000000  2.000000  2.000000  2.000000  2.000000
                       2.000000  2.000000  2.000000  2.000000  2.000000  2.000000
                       2.000000  2.000000  2.000000  2.000000  2.000000  2.000000
                       2.000000  2.000000  2.000000  2.000000  2.000000  2.000000
                       2.000000  2.000000  2.000000  2.000000  2.000000  2.000000
                       2.000000  2.000000  2.000000  2.000000  2.000000  2.000000
                       2.000000  2.000000  2.000000  2.000000  2.000000  2.000000
                       2.000000  2.000000  2.000000  2.000000  2.000000  2.000000
                       2.000000  2.000000  2.000000  2.000000  2.000000  2.000000
                       2.000000  2.000000  2.000000  2.000000  2.000000  2.000000
                       2.000000  2.000000  2.000000  2.000000  2.000000  2.000000
                       2.000000  2.000000  2.000000  2.000000  2.000000  2.000000
                       2.000000  2.000000  2.000000  2.000000  2.000000  2.000000
                       2.000000  2.000000  2.000000  2.000000  2.000000  2.000000
                       2.000000  2.000000  2.000000  2.000000  2.000000  2.000000
                       2.000000  2.000000  2.000000  1.999999  1.999998  1.999995
                       1.999992  1.999961  1.999947  1.999895  1.999716  1.999303
                       1.997048  1.988004  1.978938  1.915496  1.462444  0.441595
                       0.209116  0.005374  0.002942  0.000231  0.000004  0.000000
                       0.000000  0.000000  0.000000  0.000000  0.000000  0.000000
                       0.000000  0.000000  0.000000  0.000000  0.000000  0.000000
                       0.000000  0.000000  0.000000  0.000000  0.000000  0.000000
                       0.000000  0.000000  0.000000  0.000000  0.000000  0.000000
                       0.000000  0.000000  0.000000  0.000000  0.000000  0.000000
           occopt           3
        paral_kgb           1
        pawecutdg      1.00000000E+01 Hartree
           prtden           0
           prteig           0
            prtwf           0
          spgroup         221
           strten     -4.3297550530E-03 -4.3297550530E-03 -4.3297550530E-03
                       0.0000000000E+00  0.0000000000E+00  0.0000000000E+00
           symrel      1  0  0   0  1  0   0  0  1      -1  0  0   0 -1  0   0  0 -1
                      -1  0  0   0  1  0   0  0 -1       1  0  0   0 -1  0   0  0  1
                      -1  0  0   0 -1  0   0  0  1       1  0  0   0  1  0   0  0 -1
                       1  0  0   0 -1  0   0  0 -1      -1  0  0   0  1  0   0  0  1
                       0  1  0   1  0  0   0  0  1       0 -1  0  -1  0  0   0  0 -1
                       0 -1  0   1  0  0   0  0 -1       0  1  0  -1  0  0   0  0  1
                       0 -1  0  -1  0  0   0  0  1       0  1  0   1  0  0   0  0 -1
                       0  1  0  -1  0  0   0  0 -1       0 -1  0   1  0  0   0  0  1
                       0  0  1   1  0  0   0  1  0       0  0 -1  -1  0  0   0 -1  0
                       0  0 -1   1  0  0   0 -1  0       0  0  1  -1  0  0   0  1  0
                       0  0 -1  -1  0  0   0  1  0       0  0  1   1  0  0   0 -1  0
                       0  0  1  -1  0  0   0 -1  0       0  0 -1   1  0  0   0  1  0
                       1  0  0   0  0  1   0  1  0      -1  0  0   0  0 -1   0 -1  0
                      -1  0  0   0  0  1   0 -1  0       1  0  0   0  0 -1   0  1  0
                      -1  0  0   0  0 -1   0  1  0       1  0  0   0  0  1   0 -1  0
                       1  0  0   0  0 -1   0 -1  0      -1  0  0   0  0  1   0  1  0
                       0  1  0   0  0  1   1  0  0       0 -1  0   0  0 -1  -1  0  0
                       0 -1  0   0  0  1  -1  0  0       0  1  0   0  0 -1   1  0  0
                       0 -1  0   0  0 -1   1  0  0       0  1  0   0  0  1  -1  0  0
                       0  1  0   0  0 -1  -1  0  0       0 -1  0   0  0  1   1  0  0
                       0  0  1   0  1  0   1  0  0       0  0 -1   0 -1  0  -1  0  0
                       0  0 -1   0  1  0  -1  0  0       0  0  1   0 -1  0   1  0  0
                       0  0 -1   0 -1  0   1  0  0       0  0  1   0  1  0  -1  0  0
                       0  0  1   0 -1  0  -1  0  0       0  0 -1   0  1  0   1  0  0
           timopt          -3
           toldfe      1.00000000E-05 Hartree
           tsmear      2.00000000E-03 Hartree
            typat      1  1  1  1  1  1  1  1  1  1  1  1  1  1  1  1  1  1  1  1
                       1  1  1  1  1  1  1  1  1  1  1
  use_gemm_nonlop           1
           useylm           1
         wfoptalg         111
           xangst      2.0293945949E+00  2.0293945949E+00  0.0000000000E+00
                       2.0293945949E+00  0.0000000000E+00  2.0293945949E+00
                       0.0000000000E+00  2.0293945949E+00  2.0293945949E+00
                       0.0000000000E+00  0.0000000000E+00  4.0587891899E+00
                       2.0293945949E+00  2.0293945949E+00  4.0587891899E+00
                       2.0293945949E+00  0.0000000000E+00  6.0881837848E+00
                       0.0000000000E+00  2.0293945949E+00  6.0881837848E+00
                       0.0000000000E+00  4.0587891899E+00  0.0000000000E+00
                       2.0293945949E+00  6.0881837848E+00  0.0000000000E+00
                       2.0293945949E+00  4.0587891899E+00  2.0293945949E+00
                       0.0000000000E+00  6.0881837848E+00  2.0293945949E+00
                       0.0000000000E+00  4.0587891899E+00  4.0587891899E+00
                       2.0293945949E+00  6.0881837848E+00  4.0587891899E+00
                       2.0293945949E+00  4.0587891899E+00  6.0881837848E+00
                       0.0000000000E+00  6.0881837848E+00  6.0881837848E+00
                       4.0587891899E+00  0.0000000000E+00  0.0000000000E+00
                       6.0881837848E+00  2.0293945949E+00  0.0000000000E+00
                       6.0881837848E+00  0.0000000000E+00  2.0293945949E+00
                       4.0587891899E+00  2.0293945949E+00  2.0293945949E+00
                       4.0587891899E+00  0.0000000000E+00  4.0587891899E+00
                       6.0881837848E+00  2.0293945949E+00  4.0587891899E+00
                       6.0881837848E+00  0.0000000000E+00  6.0881837848E+00
                       4.0587891899E+00  2.0293945949E+00  6.0881837848E+00
                       4.0587891899E+00  4.0587891899E+00  0.0000000000E+00
                       6.0881837848E+00  6.0881837848E+00  0.0000000000E+00
                       6.0881837848E+00  4.0587891899E+00  2.0293945949E+00
                       4.0587891899E+00  6.0881837848E+00  2.0293945949E+00
                       4.0587891899E+00  4.0587891899E+00  4.0587891899E+00
                       6.0881837848E+00  6.0881837848E+00  4.0587891899E+00
                       6.0881837848E+00  4.0587891899E+00  6.0881837848E+00
                       4.0587891899E+00  6.0881837848E+00  6.0881837848E+00
            xcart      3.8350000000E+00  3.8350000000E+00  0.0000000000E+00
                       3.8350000000E+00  0.0000000000E+00  3.8350000000E+00
                       0.0000000000E+00  3.8350000000E+00  3.8350000000E+00
                       0.0000000000E+00  0.0000000000E+00  7.6700000000E+00
                       3.8350000000E+00  3.8350000000E+00  7.6700000000E+00
                       3.8350000000E+00  0.0000000000E+00  1.1505000000E+01
                       0.0000000000E+00  3.8350000000E+00  1.1505000000E+01
                       0.0000000000E+00  7.6700000000E+00  0.0000000000E+00
                       3.8350000000E+00  1.1505000000E+01  0.0000000000E+00
                       3.8350000000E+00  7.6700000000E+00  3.8350000000E+00
                       0.0000000000E+00  1.1505000000E+01  3.8350000000E+00
                       0.0000000000E+00  7.6700000000E+00  7.6700000000E+00
                       3.8350000000E+00  1.1505000000E+01  7.6700000000E+00
                       3.8350000000E+00  7.6700000000E+00  1.1505000000E+01
                       0.0000000000E+00  1.1505000000E+01  1.1505000000E+01
                       7.6700000000E+00  0.0000000000E+00  0.0000000000E+00
                       1.1505000000E+01  3.8350000000E+00  0.0000000000E+00
                       1.1505000000E+01  0.0000000000E+00  3.8350000000E+00
                       7.6700000000E+00  3.8350000000E+00  3.8350000000E+00
                       7.6700000000E+00  0.0000000000E+00  7.6700000000E+00
                       1.1505000000E+01  3.8350000000E+00  7.6700000000E+00
                       1.1505000000E+01  0.0000000000E+00  1.1505000000E+01
                       7.6700000000E+00  3.8350000000E+00  1.1505000000E+01
                       7.6700000000E+00  7.6700000000E+00  0.0000000000E+00
                       1.1505000000E+01  1.1505000000E+01  0.0000000000E+00
                       1.1505000000E+01  7.6700000000E+00  3.8350000000E+00
                       7.6700000000E+00  1.1505000000E+01  3.8350000000E+00
                       7.6700000000E+00  7.6700000000E+00  7.6700000000E+00
                       1.1505000000E+01  1.1505000000E+01  7.6700000000E+00
                       1.1505000000E+01  7.6700000000E+00  1.1505000000E+01
                       7.6700000000E+00  1.1505000000E+01  1.1505000000E+01
             xred      2.5000000000E-01  2.5000000000E-01  0.0000000000E+00
                       2.5000000000E-01  0.0000000000E+00  2.5000000000E-01
                       0.0000000000E+00  2.5000000000E-01  2.5000000000E-01
                       0.0000000000E+00  0.0000000000E+00  5.0000000000E-01
                       2.5000000000E-01  2.5000000000E-01  5.0000000000E-01
                       2.5000000000E-01  0.0000000000E+00  7.5000000000E-01
                       0.0000000000E+00  2.5000000000E-01  7.5000000000E-01
                       0.0000000000E+00  5.0000000000E-01  0.0000000000E+00
                       2.5000000000E-01  7.5000000000E-01  0.0000000000E+00
                       2.5000000000E-01  5.0000000000E-01  2.5000000000E-01
                       0.0000000000E+00  7.5000000000E-01  2.5000000000E-01
                       0.0000000000E+00  5.0000000000E-01  5.0000000000E-01
                       2.5000000000E-01  7.5000000000E-01  5.0000000000E-01
                       2.5000000000E-01  5.0000000000E-01  7.5000000000E-01
                       0.0000000000E+00  7.5000000000E-01  7.5000000000E-01
                       5.0000000000E-01  0.0000000000E+00  0.0000000000E+00
                       7.5000000000E-01  2.5000000000E-01  0.0000000000E+00
                       7.5000000000E-01  0.0000000000E+00  2.5000000000E-01
                       5.0000000000E-01  2.5000000000E-01  2.5000000000E-01
                       5.0000000000E-01  0.0000000000E+00  5.0000000000E-01
                       7.5000000000E-01  2.5000000000E-01  5.0000000000E-01
                       7.5000000000E-01  0.0000000000E+00  7.5000000000E-01
                       5.0000000000E-01  2.5000000000E-01  7.5000000000E-01
                       5.0000000000E-01  5.0000000000E-01  0.0000000000E+00
                       7.5000000000E-01  7.5000000000E-01  0.0000000000E+00
                       7.5000000000E-01  5.0000000000E-01  2.5000000000E-01
                       5.0000000000E-01  7.5000000000E-01  2.5000000000E-01
                       5.0000000000E-01  5.0000000000E-01  5.0000000000E-01
                       7.5000000000E-01  7.5000000000E-01  5.0000000000E-01
                       7.5000000000E-01  5.0000000000E-01  7.5000000000E-01
                       5.0000000000E-01  7.5000000000E-01  7.5000000000E-01
            znucl       56.00000
 
================================================================================
 
 Test the timer : 
  a combined call timab(*,1,tsec) + timab(*,2,tsec) is 
- CPU time =    1.0518E-04 sec,    Wall time =    3.3302E-05 sec

- Total cpu        time (s,m,h):        167.5        2.79      0.047
- Total wall clock time (s,m,h):         55.3        0.92      0.015
-
- For major independent code sections, cpu and wall times (sec),
-  as well as % of the time and number of calls for node 0-
-<BEGIN_TIMER mpi_nprocs = 1, omp_nthreads = 12, mpi_rank = 0>
- cpu_time =          167.5, wall_time =           55.3
-
- routine                        cpu     %       wall     %      number of calls  Gflops    Speedup Efficacity
-                                                                  (-1=no count)
- fourwf%(pot)                 298.902 178.4     81.622 147.6            412      -1.00        3.66       0.31
- nonlop(apply)                231.681 138.3     64.678 116.9            476      -1.00        3.58       0.30
- vtowfk(ssdiag)               120.599  72.0     36.014  65.1             -1      -1.00        3.35       0.28
- chebfiwf2                    120.570  72.0     36.006  65.1              5      -1.00        3.35       0.28
- getghc-other                  15.717   9.4      4.546   8.2             -1      -1.00        3.46       0.29
- pawdenpot                      9.208   5.5      2.521   4.6              5      -1.00        3.65       0.30
- mkrho/=                        5.294   3.2      1.615   2.9             10      -1.00        3.28       0.27
- pawdij/symdij                  3.940   2.4      1.107   2.0              5      -1.00        3.56       0.30
- vtowfk(contrib)                3.845   2.3      1.104   2.0              5      -1.00        3.48       0.29
- pawmkrho                       3.073   1.8      1.036   1.9              5      -1.00        2.97       0.25
- pawmkrho:symrhoij              2.552   1.5      0.876   1.6              5      -1.00        2.91       0.24
- fourdp                         2.494   1.5      0.846   1.5             51      -1.00        2.95       0.25
- pawinit                        1.671   1.0      0.651   1.2              2      -1.00        2.57       0.21
- pspini                         1.520   0.9      0.993   1.8              1      -1.00        1.53       0.13
- ewald                          1.202   0.7      0.636   1.1              1      -1.00        1.89       0.16
- vtorho:pawmkrhoij              1.007   0.6      0.270   0.5              5      -1.00        3.73       0.31
- xc:pot/=fourdp                 0.690   0.4      0.193   0.3              6      -1.00        3.58       0.30
- nhatgrid                       0.574   0.3      0.241   0.4              2      -1.00        2.38       0.20
- stress                         0.539   0.3      0.338   0.6              1      -1.00        1.59       0.13
- forces                         0.530   0.3      0.209   0.4              1      -1.00        2.54       0.21
- ewald2 (+vdw_dftd)             0.482   0.3      0.309   0.6              1      -1.00        1.56       0.13
- symrhg(no FFT)                 0.314   0.2      0.097   0.2              5      -1.00        3.23       0.27
- newkpt(excl. rwwf   )          0.168   0.1      0.043   0.1             -1      -1.00        3.95       0.33
- prep_bandfft_tabs              0.143   0.1      0.050   0.1              2      -1.00        2.83       0.24
- timing timab                   0.105   0.1      0.033   0.1              1      -1.00        3.16       0.26
- invars2                        0.074   0.0      0.074   0.1              1      -1.00        1.00       0.08
- abinit(2)                      0.067   0.0      0.122   0.2              1      -1.00        0.55       0.05
- setsym                         0.058   0.0      0.015   0.0              1      -1.00        3.84       0.32
- vtowfk  (1)                    0.047   0.0      0.013   0.0              5      -1.00        3.49       0.29
- scfcv-scprqt                   0.013   0.0      0.005   0.0              5      -1.00        2.61       0.22
- kpgsph                         0.001   0.0      0.000   0.0              2      -1.00        3.44       0.29
- inwffil(excl. calls)           0.000   0.0      0.000   0.0              1      -1.00        3.95       0.33
- others (103)                   0.000   0.0      0.000   0.0             -1      -1.00        0.00       0.00
-<END_TIMER>
-
- subtotal                     827.080 493.8    236.262 427.1                                  3.50       0.29

- For major independent code sections, cpu and wall times (sec),
- as well as % of the total time and number of calls 

-<BEGIN_TIMER mpi_nprocs = 1, omp_nthreads = 12, mpi_rank = world>
- cpu_time =         167.5, wall_time =          55.3
-
- routine                         cpu     %       wall     %      number of calls Gflops    Speedup Efficacity
-                                                                  (-1=no count)
- fourwf%(pot)                 298.902 178.4     81.622 147.6            412      -1.00        3.66       0.31
- nonlop(apply)                231.681 138.3     64.678 116.9            476      -1.00        3.58       0.30
- vtowfk(ssdiag)               120.599  72.0     36.014  65.1             -1      -1.00        3.35       0.28
- chebfiwf2                    120.570  72.0     36.006  65.1              5      -1.00        3.35       0.28
- getghc-other                  15.717   9.4      4.546   8.2             -1      -1.00        3.46       0.29
- pawdenpot                      9.208   5.5      2.521   4.6              5      -1.00        3.65       0.30
- mkrho/=                        5.294   3.2      1.615   2.9             10      -1.00        3.28       0.27
- pawdij/symdij                  3.940   2.4      1.107   2.0              5      -1.00        3.56       0.30
- vtowfk(contrib)                3.845   2.3      1.104   2.0              5      -1.00        3.48       0.29
- pawmkrho                       3.073   1.8      1.036   1.9              5      -1.00        2.97       0.25
- pawmkrho:symrhoij              2.552   1.5      0.876   1.6              5      -1.00        2.91       0.24
- fourdp                         2.494   1.5      0.846   1.5             51      -1.00        2.95       0.25
- pawinit                        1.671   1.0      0.651   1.2              2      -1.00        2.57       0.21
- pspini                         1.520   0.9      0.993   1.8              1      -1.00        1.53       0.13
- ewald                          1.202   0.7      0.636   1.1              1      -1.00        1.89       0.16
- vtorho:pawmkrhoij              1.007   0.6      0.270   0.5              5      -1.00        3.73       0.31
- xc:pot/=fourdp                 0.690   0.4      0.193   0.3              6      -1.00        3.58       0.30
- nhatgrid                       0.574   0.3      0.241   0.4              2      -1.00        2.38       0.20
- stress                         0.539   0.3      0.338   0.6              1      -1.00        1.59       0.13
- forces                         0.530   0.3      0.209   0.4              1      -1.00        2.54       0.21
- ewald2 (+vdw_dftd)             0.482   0.3      0.309   0.6              1      -1.00        1.56       0.13
- symrhg(no FFT)                 0.314   0.2      0.097   0.2              5      -1.00        3.23       0.27
- newkpt(excl. rwwf   )          0.168   0.1      0.043   0.1             -1      -1.00        3.95       0.33
- prep_bandfft_tabs              0.143   0.1      0.050   0.1              2      -1.00        2.83       0.24
- timing timab                   0.105   0.1      0.033   0.1              1      -1.00        3.16       0.26
- invars2                        0.074   0.0      0.074   0.1              1      -1.00        1.00       0.08
- abinit(2)                      0.067   0.0      0.122   0.2              1      -1.00        0.55       0.05
- setsym                         0.058   0.0      0.015   0.0              1      -1.00        3.84       0.32
- vtowfk  (1)                    0.047   0.0      0.013   0.0              5      -1.00        3.49       0.29
- scfcv-scprqt                   0.013   0.0      0.005   0.0              5      -1.00        2.61       0.22
- kpgsph                         0.001   0.0      0.000   0.0              2      -1.00        3.44       0.29
- inwffil(excl. calls)           0.000   0.0      0.000   0.0              1      -1.00        3.95       0.33
- others (103)                   0.000   0.0      0.000   0.0             -1      -1.00        0.00       0.00
-<END_TIMER>

- subtotal                     827.080 493.8    236.262 427.1                                  3.50       0.29

 Partitioning of abinit
- abinit                       167.499 100.0     55.318 100.0              1                   3.03       0.25
 
- abinit(1)                      0.024   0.0      0.079   0.1              1                   0.30       0.03
- abinit(2)                      0.067   0.0      0.122   0.2              1                   0.55       0.05
- indefo+macroin+invars2m        0.074   0.0      0.074   0.1              1                   1.00       0.08
- abinit(4)                      0.168   0.1      0.234   0.4              1                   0.72       0.06
- abinit(5)                      0.196   0.1      0.135   0.2              1                   1.45       0.12
- driver                       166.878  99.6     54.818  99.1              1                   3.04       0.25
- timana(1)                      0.141   0.1      0.043   0.1              1                   3.30       0.28
- timing timab                   0.105   0.1      0.033   0.1              1                   3.16       0.26

- subtotal                     167.499 100.0     55.318 100.0                                  3.03       0.25

 Partitioning of driver
- driver                       166.878  99.6     54.818  99.1              1                   3.04       0.25
 
- gstateimg                    166.875  99.6     54.818  99.1              1                   3.04       0.25

- subtotal                     166.878  99.6     54.818  99.1                                  3.04       0.25

 Partitioning of gstateimg+gstate
- gstateimg                    166.875  99.6     54.818  99.1              1                   3.04       0.25
 
- gstate->kpgsph                 0.298   0.2      0.077   0.1              2                   3.88       0.32
- gstate(pspini)                 1.520   0.9      0.993   1.8              1                   1.53       0.13
- gstate  (2)                    1.669   1.0      0.622   1.1              1                   2.68       0.22
- gstate(...scfcv)             163.374  97.5     53.098  96.0              1                   3.08       0.26
- gstate  (3)                    0.013   0.0      0.027   0.0              1                   0.49       0.04

- subtotal                     166.875  99.6     54.818  99.1                                  3.04       0.25

 Partitioning of scfcv_core
- scfcv_core                   163.374  97.5     53.098  96.0              1                   3.08       0.26
 
- scfcv_core(1)                  0.019   0.0      0.019   0.0              1                   1.00       0.08
- scfcv_core(iniloop, setv       1.655   1.0      0.779   1.4              5                   2.12       0.18
- scfcv_core(loop, PAW)         13.197   7.9      3.640   6.6              5                   3.63       0.30
- scfcv_core(vtorho(f))        139.123  83.1     41.692  75.4              5                   3.34       0.28
- scfcv_core(mix den - new       1.252   0.7      3.806   6.9              4                   0.33       0.03
- scfcv_core(rhotov)             0.834   0.5      0.240   0.4              4                   3.48       0.29
- scfcv_core(afterscfloop)       7.260   4.3      2.865   5.2              1                   2.53       0.21
- scfcv_core(outscfcv)           0.012   0.0      0.049   0.1              1                   0.24       0.02

- subtotal                     163.374  97.5     53.098  96.0                                  3.08       0.26

 Partitioning of rhotov
- rhotov                         0.661   0.4      0.189   0.3              4                   3.50       0.29
 
- rhotov(rhotoxc)                0.528   0.3      0.151   0.3              4                   3.50       0.29
- (other)                        0.078   0.0      0.022   0.0             -1                   3.59       0.30

- subtotal                       0.661   0.4      0.189   0.3                                  3.50       0.29

 Partitioning of vtorho
- vtorho                       139.123  83.1     41.692  75.4              5                   3.34       0.28
 
- vtorho(bef. spin loop)         0.011   0.0      0.011   0.0              5                   1.00       0.08
- vtorho(bef. kpt  loop)         0.455   0.3      0.204   0.4              5                   2.23       0.19
- vtorho(bef. vtowfk)            1.024   0.6      0.367   0.7              5                   2.79       0.23
- vtowfk                       124.491  74.3     37.131  67.1              5                   3.35       0.28
- vtorho(newocc)                 2.712   1.6      0.725   1.3              5                   3.74       0.31
- vtorho(mkrho 1)                6.078   3.6      1.843   3.3              5                   3.30       0.27
- vtorho(mkrho 2)                4.285   2.6      1.366   2.5              5                   3.14       0.26
- mkinvovl                       0.824   0.5      0.285   0.5              1                   2.89       0.24

- subtotal                     139.123  83.1     41.692  75.4                                  3.34       0.28

 Partitioning of vtowfk
- vtowfk                       124.491  74.3     37.131  67.1              5                   3.35       0.28
 
- vtowfk  (1)                    0.047   0.0      0.013   0.0              5                   3.49       0.29
- vtowfk(2)                    120.599  72.0     36.014  65.1             -1                   3.35       0.28
- prep_nonlop%vtowfk             3.355   2.0      0.950   1.7              5                   3.53       0.29
- vtowfk(3)                      0.490   0.3      0.154   0.3             -1                   3.18       0.27

- subtotal                     124.491  74.3     37.131  67.1                                  3.35       0.28

 Partitioning of getghc
- getghc                       532.989 318.2    146.514 264.9            839                   3.64       0.30
 
- fourwf%getghc                298.902 178.4     81.622 147.6            412                   3.66       0.31
- nonlop%getghc                218.370 130.4     60.345 109.1            416                   3.62       0.30
- getghc-other                  15.717   9.4      4.546   8.2             -1                   3.46       0.29

- subtotal                     532.989 318.2    146.514 264.9                                  3.64       0.30

 Partitioning of fourwf (upwards partitioning)
- fourwf                       302.399 180.5     82.699 149.5            892                   3.66       0.30
 
- fourwf%getghc                298.902 178.4     81.622 147.6            412                   3.66       0.31
- fourwf%prep_four               3.498   2.1      1.076   1.9            480                   3.25       0.27

- subtotal                     302.399 180.5     82.699 149.5                                  3.66       0.30

 Partitioning of prep_getghc
- prep_getghc                   77.522  46.3     21.665  39.2             35                   3.58       0.30
 
- prep_getghc(before if)         1.256   0.7      0.403   0.7             35                   3.12       0.26
- prep_getghc(bef. getghc)    2778.4531658.8*****************             35                   0.00       0.00
- prep_getghc(betw getghc)      15.719   9.4      4.336   7.8             35                   3.63       0.30
- prep_getghc(getghc - 3 )      30.541  18.2      8.332  15.1             35                   3.67       0.31
- prep_getghc(getghc - 4 )      25.536  15.2      7.112  12.9             35                   3.59       0.30

- subtotal                      77.522  46.3     21.665  39.2                                  3.58       0.30

 Partitioning of prep_fourwf
- prep_fourwf                    4.919   2.9      1.497   2.7              5                   3.29       0.27
 
- fourwf%prep_four               3.498   2.1      1.076   1.9            480                   3.25       0.27
- alltoall%prep_fo               0.044   0.0      0.013   0.0              5                   3.41       0.28

- subtotal                       3.542   2.1      1.090   2.0                                  3.25       0.27

 Partitioning of prep_nonlop
- prep_nonlop                   23.180  13.8      7.553  13.7             66                   3.07       0.26
 
- nonlop%prep_nonl%vtowfk        3.135   1.9      0.888   1.6              5                   3.53       0.29
- nonlop%prep_nonl%forstrn       4.344   2.6      1.576   2.8              1                   2.76       0.23
- prep_nonlop(alltoall)          0.058   0.0      0.017   0.0              6                   3.48       0.29
- (other)                       15.643   9.3      5.073   9.2             -1                   3.08       0.26

- subtotal                      23.180  13.8      7.553  13.7                                  3.07       0.26

 Partitioning of mkrho (upwards partitioning)
- mkrho                          6.078   3.6      1.843   3.3              5                   3.30       0.27
 
- mkrho%vtorho                   6.078   3.6      1.843   3.3              5                   3.30       0.27

- subtotal                       6.078   3.6      1.843   3.3                                  3.30       0.27

 Partitioning of inwffil
- inwffil                        0.169   0.1      0.043   0.1              1                   3.95       0.33
 
- inwffil(call newkpt)           0.168   0.1      0.043   0.1              1                   3.95       0.33

- subtotal                       0.169   0.1      0.043   0.1                                  3.95       0.33

 Partitioning of newkpt
- newkpt                         0.168   0.1      0.043   0.1              1                   3.95       0.33
 
- newkpt(call wfconv)            0.168   0.1      0.043   0.1              1                   3.95       0.33

- subtotal                       0.168   0.1      0.043   0.1                                  3.95       0.33

 Partitioning of newrho
- newrho                         1.251   0.7      3.806   6.9              4                   0.33       0.03
 
- fourdp%newrho                  0.217   0.1      0.057   0.1              8                   3.80       0.32

- subtotal                       0.217   0.1      0.057   0.1                                  3.80       0.32

 Partitioning of  fourdp (upwards partitioning)
- fourdp                         2.494   1.5      0.846   1.5             51                   2.95       0.25
 
- fourdp%(other)                 2.277   1.4      0.789   1.4             43                   2.89       0.24
- fourdp%newrho                  0.217   0.1      0.057   0.1              8                   3.80       0.32

- subtotal                       2.494   1.5      0.846   1.5                                  2.95       0.25

 Partitioning of afterscfloop
- afterscfloop                   7.260   4.3      2.865   5.2              1                   2.53       0.21
 
- afterscfloop(forstr)           7.259   4.3      2.863   5.2              1                   2.54       0.21

- subtotal                       7.260   4.3      2.864   5.2                                  2.53       0.21

 Partitioning of forstr
- forstr                         6.708   4.0      2.645   4.8              1                   2.54       0.21
 
- forstr(forstrnps)              5.396   3.2      1.985   3.6              1                   2.72       0.23
- forstr(pawgrnl)                0.156   0.1      0.075   0.1              1                   2.07       0.17
- forstr(forces)                 0.617   0.4      0.246   0.4              1                   2.50       0.21
- forstr(stress)                 0.539   0.3      0.338   0.6              1                   1.59       0.13

- subtotal                       6.708   4.0      2.645   4.8                                  2.54       0.21

 Partitioning of forstrnps
- forstrnps                      5.396   3.2      1.985   3.6              1                   2.72       0.23
 
- forstrnps(bef.loop band)       0.229   0.1      0.096   0.2              1                   2.39       0.20
- forstrnps(copy)                0.048   0.0      0.015   0.0              1                   3.12       0.26
- forstrnps(nonlop+prep_ba       4.455   2.7      1.618   2.9              1                   2.75       0.23
- forstrnps(kinetic contr)       0.654   0.4      0.252   0.5              1                   2.60       0.22

- subtotal                       5.396   3.2      1.985   3.6                                  2.72       0.23

 Partitioning of outscfcv
- outscfcv                       0.012   0.0      0.049   0.1              1                   0.24       0.02
 

- subtotal                       0.004   0.0      0.004   0.0                                  1.00       0.08

 Partitioning of mkinvovl
- mkinvovl                       0.824   0.5      0.285   0.5              1                   2.89       0.24
 
- mkinvovl(build_d)              0.650   0.4      0.198   0.4              1                   3.28       0.27
- mkinvovl(build_ptp)            0.175   0.1      0.087   0.2              1                   2.01       0.17

- subtotal                       0.824   0.5      0.285   0.5                                  2.89       0.24

 Partitioning of chebfiwf2 core engine
- chebfiwf2                    120.570  72.0     36.006  65.1              5                   3.35       0.28
 
- chebfi2_init                   0.125   0.1      0.032   0.1              5                   3.92       0.33
- chebfi2_run                  120.270  71.8     35.927  64.9              5                   3.35       0.28
- chebfi2_getAX_BX              81.564  48.7     22.787  41.2             35                   3.58       0.30
- chebfi2_invovl                26.600  15.9      9.567  17.3             30                   2.78       0.23
- chebfi2_residu                 0.476   0.3      0.135   0.2              5                   3.52       0.29
- chebfi2_RayleighRitz           9.869   5.9      2.842   5.1              5                   3.47       0.29
- chebfi2_pcond                  0.109   0.1      0.029   0.1              5                   3.83       0.32
- chebfi2_RR_q                   0.196   0.1      0.050   0.1              5                   3.95       0.33
- chebfi2_next_p                27.100  16.2      9.816  17.7             30                   2.76       0.23
- chebfi2_swap                   0.030   0.0      0.021   0.0             30                   1.45       0.12
- chebfi2_amp_f                  0.132   0.1      0.037   0.1              5                   3.59       0.30

- subtotal                     266.471 159.1     81.242 146.9                                  3.28       0.27
-
-Synchronisation (=leave_test) and MPI calls 
- communic.MPI                   0.001   0.0      0.000   0.0             20                   4.69       0.39
-
- forstrnps:synchr               0.000   0.0      0.000   0.0              2                   1.49       0.12
- mkrho :MPIrhor                 0.000   0.0      0.000   0.0              5                   4.59       0.38
- subtotal                       0.000   0.0      0.000   0.0                                  3.67       0.31

 Additional information
- timana(1)                      0.141   0.1      0.043   0.1              1                   3.30       0.28
- total timab                    0.484   0.3      0.153   0.3           4603                   3.16       0.26
- fourwf                       302.399 180.5     82.699 149.5            892                   3.66       0.30
- newocc                         2.712   1.6      0.724   1.3              5                   3.74       0.31
- nonlop(total)                239.160 142.8     67.142 121.4            482                   3.56       0.30

 Additional information about PAW segments
- forces:pawatm2ff               0.382   0.2      0.145   0.3              1                   2.63       0.22
- stress:pawatm2ff               0.051   0.0      0.027   0.0              1                   1.88       0.16
- setvtr:pawatm2ff               0.131   0.1      0.044   0.1              1                   2.96       0.25
- pawinit                        1.671   1.0      0.651   1.2              2                   2.57       0.21
- vtowfk:rhoij                   3.356   2.0      0.950   1.7              5                   3.53       0.29
- vtorho:pawmkrhoij              1.007   0.6      0.270   0.5              5                   3.73       0.31
- pawmkrho                       3.073   1.8      1.036   1.9              5                   2.97       0.25
- scfcv_core:mknhat              0.224   0.1      0.064   0.1              5                   3.49       0.29
- nhatgrid                       0.574   0.3      0.241   0.4              2                   2.38       0.20
- pawdenpot                      9.208   5.5      2.521   4.6              5                   3.65       0.30
- pawdij/symdij                  3.940   2.4      1.107   2.0              5                   3.56       0.30


 Detailed analysis of some time consuming routines 
                                  tcpu    ncalls  tcpu/ncalls    ndata tcpu/ncalls/ndata
                                 (sec)                (msec)              (microsec)
- fourwf%(pot)                 298.902       412     725.489    128000       5.668
- fourwf%(den)                   0.000         0
- fourdp                         2.494        51      48.911     64000       0.764
- nonlop(apply)                231.681       476     486.726    120497       4.039
- nonlop(forces)                 0.000         0
- nonlop(forstr)                 0.000         0
- projbd                         0.000         0
- xc:pot/=fourdp                 0.690         6     115.018     64000       1.797

================================================================================

 Suggested references for the acknowledgment of ABINIT usage.

 The users of ABINIT have little formal obligations with respect to the ABINIT group
 (those specified in the GNU General Public License, http://www.gnu.org/copyleft/gpl.txt).
 However, it is common practice in the scientific literature,
 to acknowledge the efforts of people that have made the research possible.
 In this spirit, please find below suggested citations of work written by ABINIT developers,
 corresponding to implementations inside of ABINIT that you have used in the present run.
 Note also that it will be of great value to readers of publications presenting these results,
 to read papers enabling them to understand the theoretical formalism and details
 of the ABINIT implementation.
 For information on why they are suggested, see also https://docs.abinit.org/theory/acknowledgments.
-
- [1] Implementation of the Projector Augmented-Wave Method in the ABINIT code.
- M. Torrent, F. Jollet, F. Bottin, G. Zerah, and X. Gonze Comput. Mat. Science 42, 337, (2008).
- Comment: PAW calculations. Strong suggestion to cite this paper.
- DOI and bibtex: see https://docs.abinit.org/theory/bibliography/#torrent2008
-
- [2] Recent developments in the ABINIT software package.
- Computer Phys. Comm. 205, 106 (2016).
- X.Gonze, F.Jollet, F.Abreu Araujo, D.Adams, B.Amadon, T.Applencourt,
- C.Audouze, J.-M.Beuken, J.Bieder, A.Bokhanchuk, E.Bousquet, F.Bruneval
- D.Caliste, M.Cote, F.Dahm, F.Da Pieve, M.Delaveau, M.Di Gennaro,
- B.Dorado, C.Espejo, G.Geneste, L.Genovese, A.Gerossier, M.Giantomassi,
- Y.Gillet, D.R.Hamann, L.He, G.Jomard, J.Laflamme Janssen, S.Le Roux,
- A.Levitt, A.Lherbier, F.Liu, I.Lukacevic, A.Martin, C.Martins,
- M.J.T.Oliveira, S.Ponce, Y.Pouillon, T.Rangel, G.-M.Rignanese,
- A.H.Romero, B.Rousseau, O.Rubel, A.A.Shukri, M.Stankovski, M.Torrent,
- M.J.Van Setten, B.Van Troeye, M.J.Verstraete, D.Waroquier, J.Wiktor,
- B.Xu, A.Zhou, J.W.Zwanziger.
- Comment: the fourth generic paper describing the ABINIT project.
- Note that a version of this paper, that is not formatted for Computer Phys. Comm. 
- is available at https://www.abinit.org/about/ABINIT16.pdf .
- The licence allows the authors to put it on the Web.
- DOI and bibtex: see https://docs.abinit.org/theory/bibliography/#gonze2016
-
- [3] ABINIT: First-principles approach of materials and nanosystem properties.
- Computer Phys. Comm. 180, 2582-2615 (2009).
- X. Gonze, B. Amadon, P.-M. Anglade, J.-M. Beuken, F. Bottin, P. Boulanger, F. Bruneval,
- D. Caliste, R. Caracas, M. Cote, T. Deutsch, L. Genovese, Ph. Ghosez, M. Giantomassi
- S. Goedecker, D.R. Hamann, P. Hermet, F. Jollet, G. Jomard, S. Leroux, M. Mancini, S. Mazevet,
- M.J.T. Oliveira, G. Onida, Y. Pouillon, T. Rangel, G.-M. Rignanese, D. Sangalli, R. Shaltaf,
- M. Torrent, M.J. Verstraete, G. Zerah, J.W. Zwanziger
- Comment: the third generic paper describing the ABINIT project.
- Note that a version of this paper, that is not formatted for Computer Phys. Comm. 
- is available at https://www.abinit.org/about/ABINIT_CPC_v10.pdf .
- The licence allows the authors to put it on the Web.
- DOI and bibtex: see https://docs.abinit.org/theory/bibliography/#gonze2009
-
- [4] A brief introduction to the ABINIT software package.
- Z. Kristallogr. 220, 558-562 (2005).
- X. Gonze, G.-M. Rignanese, M. Verstraete, J.-M. Beuken, Y. Pouillon, R. Caracas, F. Jollet,
- M. Torrent, G. Zerah, M. Mikami, Ph. Ghosez, M. Veithen, J.-Y. Raty, V. Olevano, F. Bruneval,
- L. Reining, R. Godby, G. Onida, D.R. Hamann, and D.C. Allan.
- Comment: the second generic paper describing the ABINIT project. Note that this paper
- should be cited especially if you are using the GW part of ABINIT, as several authors
- of this part are not in the list of authors of the first or third paper.
- The .pdf of the latter paper is available at https://www.abinit.org/about/zfk_0505-06_558-562.pdf.
- Note that it should not redistributed (Copyright by Oldenburg Wissenshaftverlag,
- the licence allows the authors to put it on the Web).
- DOI and bibtex: see https://docs.abinit.org/theory/bibliography/#gonze2005
-
- And optionally:
-
- [5] First-principles computation of material properties: the ABINIT software project. 
- X. Gonze, J.-M. Beuken, R. Caracas, F. Detraux, M. Fuchs, G.-M. Rignanese, L. Sindic,
- M. Verstraete, G. Zerah, F. Jollet, M. Torrent, A. Roy, M. Mikami, Ph. Ghosez, J.-Y. Raty, D.C. Allan.
- Computational Materials Science 25, 478-492 (2002). http://dx.doi.org/10.1016/S0927-0256(02)00325-7
- Comment: the original paper describing the ABINIT project.
- DOI and bibtex : see https://docs.abinit.org/theory/bibliography/#gonze2002
-
- Proc.   0 individual time (sec): cpu=        167.6  wall=         55.4
 
================================================================================
 
 Calculation completed.
.Delivered   1 WARNINGs and   8 COMMENTs to log file.
+Overall time at end (sec) : cpu=        167.6  wall=         55.4
