
.Version 8.11.5 of ABINIT 
.(sequential version, prepared for a x86_64_linux_intel19.0 computer) 

.Copyright (C) 1998-2019 ABINIT group . 
 ABINIT comes with ABSOLUTELY NO WARRANTY.
 It is free software, and you are welcome to redistribute it
 under certain conditions (GNU General Public License,
 see ~abinit/COPYING or http://www.gnu.org/copyleft/gpl.txt).

 ABINIT is a project of the Universite Catholique de Louvain,
 Corning Inc. and other collaborators, see ~abinit/doc/developers/contributors.txt .
 Please read https://docs.abinit.org/theory/acknowledgments for suggested
 acknowledgments of the ABINIT effort.
 For more information, see https://www.abinit.org .

.Starting date : Tue 19 Mar 2019.
- ( at 11h53 )
  
- input  file    -> t03.in
- output file    -> t03_x.out
- root for input  files -> t03_xi
- root for output files -> t03_xo
 
- inpspheads : Reading pseudopotential header in XML form from ../../../Psps_for_tests/ba.hpc.paw.xml
 
 Symmetries : space group Pm -3 m (#221); Bravais cP (primitive cubic)
================================================================================
 Values of the parameters that define the memory need of the present run
     intxc =       0    ionmov =       0      iscf =      17    lmnmax =      18
     lnmax =       6     mgfft =      40  mpssoang =       3    mqgrid =    3001
     natom =      31  nloc_mem =       2    nspden =       1   nspinor =       1
    nsppol =       1      nsym =      48    n1xccc =       1    ntypat =       1
    occopt =       3   xclevel =       1
-    mband =         192        mffmem =           1         mkmem =           1
       mpw =        1944          nfft =       64000          nkpt =           1
 PAW method is used; the additional fine FFT grid is defined by:
   mgfftf=        45    nfftf =     91125
================================================================================
P This job should need less than                      60.003 Mbytes of memory.
  Rough estimation (10% accuracy) of disk space for files :
_ WF disk file :      5.697 Mbytes ; DEN or POT disk file :      0.697 Mbytes.
================================================================================
 
--------------------------------------------------------------------------------
------------- Echo of variables that govern the present computation ------------
--------------------------------------------------------------------------------
-
- outvars: echo of selected default values                                      
-   iomode0 =  0 , fftalg0 =312 , wfoptalg0 = 10
-
- outvars: echo of global parameters not present in the input file              
-  max_nthreads =   12
-
 -outvars: echo values of preprocessed input variables --------
            acell      1.5340000000E+01  1.5340000000E+01  1.5340000000E+01 Bohr
              amu      1.37327000E+02
           bandpp         192
      chksymbreak           0
             ecut      8.00000000E+00 Hartree
-          fftalg         312
           istwfk        2
              ixc           7
           kptopt           0
P           mkmem           1
            natom          31
            nband         192
            ngfft          40      40      40
          ngfftdg          45      45      45
             nkpt           1
            nline           1
            nstep         100
             nsym          48
           ntypat           1
              occ      2.000000  2.000000  2.000000  2.000000  2.000000  2.000000
                       2.000000  2.000000  2.000000  2.000000  2.000000  2.000000
                       2.000000  2.000000  2.000000  2.000000  2.000000  2.000000
                       2.000000  2.000000  2.000000  2.000000  2.000000  2.000000
                       2.000000  2.000000  2.000000  2.000000  2.000000  2.000000
                       2.000000  2.000000  2.000000  2.000000  2.000000  2.000000
                       2.000000  2.000000  2.000000  2.000000  2.000000  2.000000
                       2.000000  2.000000  2.000000  2.000000  2.000000  2.000000
                       2.000000  2.000000  2.000000  2.000000  2.000000  2.000000
                       2.000000  2.000000  2.000000  2.000000  2.000000  2.000000
                       2.000000  2.000000  2.000000  2.000000  2.000000  2.000000
                       2.000000  2.000000  2.000000  2.000000  2.000000  2.000000
                       2.000000  2.000000  2.000000  2.000000  2.000000  2.000000
                       2.000000  2.000000  2.000000  2.000000  2.000000  2.000000
                       2.000000  2.000000  2.000000  2.000000  2.000000  2.000000
                       2.000000  2.000000  2.000000  2.000000  2.000000  2.000000
                       2.000000  2.000000  2.000000  2.000000  2.000000  2.000000
                       2.000000  2.000000  2.000000  2.000000  2.000000  2.000000
                       2.000000  2.000000  2.000000  2.000000  2.000000  2.000000
                       2.000000  2.000000  2.000000  2.000000  2.000000  2.000000
                       2.000000  2.000000  2.000000  2.000000  2.000000  2.000000
                       2.000000  2.000000  2.000000  2.000000  2.000000  2.000000
                       2.000000  2.000000  2.000000  2.000000  2.000000  2.000000
                       2.000000  2.000000  2.000000  2.000000  2.000000  2.000000
                       2.000000  2.000000  2.000000  2.000000  2.000000  2.000000
                       2.000000  2.000000  2.000000  2.000000  2.000000  0.000000
                       0.000000  0.000000  0.000000  0.000000  0.000000  0.000000
                       0.000000  0.000000  0.000000  0.000000  0.000000  0.000000
                       0.000000  0.000000  0.000000  0.000000  0.000000  0.000000
                       0.000000  0.000000  0.000000  0.000000  0.000000  0.000000
                       0.000000  0.000000  0.000000  0.000000  0.000000  0.000000
                       0.000000  0.000000  0.000000  0.000000  0.000000  0.000000
           occopt           3
        pawecutdg      1.00000000E+01 Hartree
         pawmixdg           1
           prtden           0
           prteig           0
            prtwf           0
          spgroup         221
           symrel      1  0  0   0  1  0   0  0  1      -1  0  0   0 -1  0   0  0 -1
                      -1  0  0   0  1  0   0  0 -1       1  0  0   0 -1  0   0  0  1
                      -1  0  0   0 -1  0   0  0  1       1  0  0   0  1  0   0  0 -1
                       1  0  0   0 -1  0   0  0 -1      -1  0  0   0  1  0   0  0  1
                       0  1  0   1  0  0   0  0  1       0 -1  0  -1  0  0   0  0 -1
                       0 -1  0   1  0  0   0  0 -1       0  1  0  -1  0  0   0  0  1
                       0 -1  0  -1  0  0   0  0  1       0  1  0   1  0  0   0  0 -1
                       0  1  0  -1  0  0   0  0 -1       0 -1  0   1  0  0   0  0  1
                       0  0  1   1  0  0   0  1  0       0  0 -1  -1  0  0   0 -1  0
                       0  0 -1   1  0  0   0 -1  0       0  0  1  -1  0  0   0  1  0
                       0  0 -1  -1  0  0   0  1  0       0  0  1   1  0  0   0 -1  0
                       0  0  1  -1  0  0   0 -1  0       0  0 -1   1  0  0   0  1  0
                       1  0  0   0  0  1   0  1  0      -1  0  0   0  0 -1   0 -1  0
                      -1  0  0   0  0  1   0 -1  0       1  0  0   0  0 -1   0  1  0
                      -1  0  0   0  0 -1   0  1  0       1  0  0   0  0  1   0 -1  0
                       1  0  0   0  0 -1   0 -1  0      -1  0  0   0  0  1   0  1  0
                       0  1  0   0  0  1   1  0  0       0 -1  0   0  0 -1  -1  0  0
                       0 -1  0   0  0  1  -1  0  0       0  1  0   0  0 -1   1  0  0
                       0 -1  0   0  0 -1   1  0  0       0  1  0   0  0  1  -1  0  0
                       0  1  0   0  0 -1  -1  0  0       0 -1  0   0  0  1   1  0  0
                       0  0  1   0  1  0   1  0  0       0  0 -1   0 -1  0  -1  0  0
                       0  0 -1   0  1  0  -1  0  0       0  0  1   0 -1  0   1  0  0
                       0  0 -1   0 -1  0   1  0  0       0  0  1   0  1  0  -1  0  0
                       0  0  1   0 -1  0  -1  0  0       0  0 -1   0  1  0   1  0  0
           timopt          -3
           toldfe      1.00000000E-05 Hartree
           tsmear      2.00000000E-03 Hartree
            typat      1  1  1  1  1  1  1  1  1  1  1  1  1  1  1  1  1  1  1  1
                       1  1  1  1  1  1  1  1  1  1  1
           useylm           1
         wfoptalg         111
           xangst      2.0293945949E+00  2.0293945949E+00  0.0000000000E+00
                       2.0293945949E+00  0.0000000000E+00  2.0293945949E+00
                       0.0000000000E+00  2.0293945949E+00  2.0293945949E+00
                       0.0000000000E+00  0.0000000000E+00  4.0587891899E+00
                       2.0293945949E+00  2.0293945949E+00  4.0587891899E+00
                       2.0293945949E+00  0.0000000000E+00  6.0881837848E+00
                       0.0000000000E+00  2.0293945949E+00  6.0881837848E+00
                       0.0000000000E+00  4.0587891899E+00  0.0000000000E+00
                       2.0293945949E+00  6.0881837848E+00  0.0000000000E+00
                       2.0293945949E+00  4.0587891899E+00  2.0293945949E+00
                       0.0000000000E+00  6.0881837848E+00  2.0293945949E+00
                       0.0000000000E+00  4.0587891899E+00  4.0587891899E+00
                       2.0293945949E+00  6.0881837848E+00  4.0587891899E+00
                       2.0293945949E+00  4.0587891899E+00  6.0881837848E+00
                       0.0000000000E+00  6.0881837848E+00  6.0881837848E+00
                       4.0587891899E+00  0.0000000000E+00  0.0000000000E+00
                       6.0881837848E+00  2.0293945949E+00  0.0000000000E+00
                       6.0881837848E+00  0.0000000000E+00  2.0293945949E+00
                       4.0587891899E+00  2.0293945949E+00  2.0293945949E+00
                       4.0587891899E+00  0.0000000000E+00  4.0587891899E+00
                       6.0881837848E+00  2.0293945949E+00  4.0587891899E+00
                       6.0881837848E+00  0.0000000000E+00  6.0881837848E+00
                       4.0587891899E+00  2.0293945949E+00  6.0881837848E+00
                       4.0587891899E+00  4.0587891899E+00  0.0000000000E+00
                       6.0881837848E+00  6.0881837848E+00  0.0000000000E+00
                       6.0881837848E+00  4.0587891899E+00  2.0293945949E+00
                       4.0587891899E+00  6.0881837848E+00  2.0293945949E+00
                       4.0587891899E+00  4.0587891899E+00  4.0587891899E+00
                       6.0881837848E+00  6.0881837848E+00  4.0587891899E+00
                       6.0881837848E+00  4.0587891899E+00  6.0881837848E+00
                       4.0587891899E+00  6.0881837848E+00  6.0881837848E+00
            xcart      3.8350000000E+00  3.8350000000E+00  0.0000000000E+00
                       3.8350000000E+00  0.0000000000E+00  3.8350000000E+00
                       0.0000000000E+00  3.8350000000E+00  3.8350000000E+00
                       0.0000000000E+00  0.0000000000E+00  7.6700000000E+00
                       3.8350000000E+00  3.8350000000E+00  7.6700000000E+00
                       3.8350000000E+00  0.0000000000E+00  1.1505000000E+01
                       0.0000000000E+00  3.8350000000E+00  1.1505000000E+01
                       0.0000000000E+00  7.6700000000E+00  0.0000000000E+00
                       3.8350000000E+00  1.1505000000E+01  0.0000000000E+00
                       3.8350000000E+00  7.6700000000E+00  3.8350000000E+00
                       0.0000000000E+00  1.1505000000E+01  3.8350000000E+00
                       0.0000000000E+00  7.6700000000E+00  7.6700000000E+00
                       3.8350000000E+00  1.1505000000E+01  7.6700000000E+00
                       3.8350000000E+00  7.6700000000E+00  1.1505000000E+01
                       0.0000000000E+00  1.1505000000E+01  1.1505000000E+01
                       7.6700000000E+00  0.0000000000E+00  0.0000000000E+00
                       1.1505000000E+01  3.8350000000E+00  0.0000000000E+00
                       1.1505000000E+01  0.0000000000E+00  3.8350000000E+00
                       7.6700000000E+00  3.8350000000E+00  3.8350000000E+00
                       7.6700000000E+00  0.0000000000E+00  7.6700000000E+00
                       1.1505000000E+01  3.8350000000E+00  7.6700000000E+00
                       1.1505000000E+01  0.0000000000E+00  1.1505000000E+01
                       7.6700000000E+00  3.8350000000E+00  1.1505000000E+01
                       7.6700000000E+00  7.6700000000E+00  0.0000000000E+00
                       1.1505000000E+01  1.1505000000E+01  0.0000000000E+00
                       1.1505000000E+01  7.6700000000E+00  3.8350000000E+00
                       7.6700000000E+00  1.1505000000E+01  3.8350000000E+00
                       7.6700000000E+00  7.6700000000E+00  7.6700000000E+00
                       1.1505000000E+01  1.1505000000E+01  7.6700000000E+00
                       1.1505000000E+01  7.6700000000E+00  1.1505000000E+01
                       7.6700000000E+00  1.1505000000E+01  1.1505000000E+01
             xred      2.5000000000E-01  2.5000000000E-01  0.0000000000E+00
                       2.5000000000E-01  0.0000000000E+00  2.5000000000E-01
                       0.0000000000E+00  2.5000000000E-01  2.5000000000E-01
                       0.0000000000E+00  0.0000000000E+00  5.0000000000E-01
                       2.5000000000E-01  2.5000000000E-01  5.0000000000E-01
                       2.5000000000E-01  0.0000000000E+00  7.5000000000E-01
                       0.0000000000E+00  2.5000000000E-01  7.5000000000E-01
                       0.0000000000E+00  5.0000000000E-01  0.0000000000E+00
                       2.5000000000E-01  7.5000000000E-01  0.0000000000E+00
                       2.5000000000E-01  5.0000000000E-01  2.5000000000E-01
                       0.0000000000E+00  7.5000000000E-01  2.5000000000E-01
                       0.0000000000E+00  5.0000000000E-01  5.0000000000E-01
                       2.5000000000E-01  7.5000000000E-01  5.0000000000E-01
                       2.5000000000E-01  5.0000000000E-01  7.5000000000E-01
                       0.0000000000E+00  7.5000000000E-01  7.5000000000E-01
                       5.0000000000E-01  0.0000000000E+00  0.0000000000E+00
                       7.5000000000E-01  2.5000000000E-01  0.0000000000E+00
                       7.5000000000E-01  0.0000000000E+00  2.5000000000E-01
                       5.0000000000E-01  2.5000000000E-01  2.5000000000E-01
                       5.0000000000E-01  0.0000000000E+00  5.0000000000E-01
                       7.5000000000E-01  2.5000000000E-01  5.0000000000E-01
                       7.5000000000E-01  0.0000000000E+00  7.5000000000E-01
                       5.0000000000E-01  2.5000000000E-01  7.5000000000E-01
                       5.0000000000E-01  5.0000000000E-01  0.0000000000E+00
                       7.5000000000E-01  7.5000000000E-01  0.0000000000E+00
                       7.5000000000E-01  5.0000000000E-01  2.5000000000E-01
                       5.0000000000E-01  7.5000000000E-01  2.5000000000E-01
                       5.0000000000E-01  5.0000000000E-01  5.0000000000E-01
                       7.5000000000E-01  7.5000000000E-01  5.0000000000E-01
                       7.5000000000E-01  5.0000000000E-01  7.5000000000E-01
                       5.0000000000E-01  7.5000000000E-01  7.5000000000E-01
            znucl       56.00000
 
================================================================================
 
 chkinp: Checking input parameters for consistency.
 
================================================================================
== DATASET  1 ==================================================================
-   nproc =    1
 
 Exchange-correlation functional for the present dataset will be:
  LDA: Perdew-Wang 92 LSD fit to Ceperley-Alder data - ixc=7
 Citation for XC functional:
  J.P.Perdew and Y.Wang, PRB 45, 13244 (1992)
 
 Real(R)+Recip(G) space primitive vectors, cartesian coordinates (Bohr,Bohr^-1):
 R(1)= 15.3400000  0.0000000  0.0000000  G(1)=  0.0651890  0.0000000  0.0000000
 R(2)=  0.0000000 15.3400000  0.0000000  G(2)=  0.0000000  0.0651890  0.0000000
 R(3)=  0.0000000  0.0000000 15.3400000  G(3)=  0.0000000  0.0000000  0.0651890
 Unit cell volume ucvol=  3.6097413E+03 bohr^3
 Angles (23,13,12)=  9.00000000E+01  9.00000000E+01  9.00000000E+01 degrees
 
 Coarse grid specifications (used for wave-functions):
 
 getcut: wavevector=  0.0000  0.0000  0.0000  ngfft=  40  40  40
         ecut(hartree)=      8.000   => boxcut(ratio)=   2.04797
 
 Fine grid specifications (used for densities):
 
 getcut: wavevector=  0.0000  0.0000  0.0000  ngfft=  45  45  45
         ecut(hartree)=     10.000   => boxcut(ratio)=   2.01494
 
--- Pseudopotential description ------------------------------------------------
- pspini: atom type   1  psp file is ../../../Psps_for_tests/ba.hpc.paw.xml
- pspatm: opening atomic psp file    ../../../Psps_for_tests/ba.hpc.paw.xml
- pspatm : Reading pseudopotential header in XML form from ../../../Psps_for_tests/ba.hpc.paw.xml
 Pseudopotential format is: paw10
 basis_size (lnmax)=  6 (lmn_size= 18), orbitals=   0   0   1   1   2   2
 Spheres core radius: rc_sph= 2.31518568
 1 radial meshes are used:
  - mesh 1: r(i)=AA*[exp(BB*(i-1))-1], size=1500 , AA= 0.15658E-03 BB= 0.87685E-02
 Shapefunction is SIN type: shapef(r)=[sin(pi*r/rshp)/(pi*r/rshp)]**2
 Radius for shape functions =  2.01210979
 mmax= 1500
 Radial grid used for partial waves is grid 1
 Radial grid used for projectors is grid 1
 Radial grid used for (t)core density is grid 1
 Radial grid used for Vloc is grid 1
 Radial grid used for pseudo valence density is grid 1
 Mesh size for Vloc has been set to 1341 to avoid numerical noise.
 Compensation charge density is not taken into account in XC energy/potential
 pspatm: atomic psp has been read  and splines computed
 
   5.70955898E+05                                ecore*ucvol(ha*bohr**3)
--------------------------------------------------------------------------------
 
_setup2: Arith. and geom. avg. npw (full set) are    3887.000    3887.000
 
================================================================================
 
     iter   Etot(hartree)      deltaE(h)  residm     nres2
 ETOT  1  -757.16893644628    -7.572E+02 7.077E-02 1.349E+02
 ETOT  2  -775.80328632777    -1.863E+01 5.857E-02 1.156E+00
 ETOT  3  -782.71015223429    -6.907E+00 5.219E-02 4.537E+00
 ETOT  4  -787.57881595307    -4.869E+00 4.748E-02 6.304E+00
 ETOT  5  -790.69287882063    -3.114E+00 4.160E-02 5.196E+00
 ETOT  6  -793.51970849134    -2.827E+00 4.130E-02 1.193E+01
 ETOT  7  -794.55605442970    -1.036E+00 3.993E-02 4.068E+00
 ETOT  8  -795.68147729407    -1.125E+00 5.121E-02 9.196E+00
 ETOT  9  -796.59140691208    -9.099E-01 7.894E-02 4.784E+00
 ETOT 10  -797.18881735179    -5.974E-01 1.234E-01 1.107E+01
 ETOT 11  -797.58155842483    -3.927E-01 2.342E-01 5.320E+00
 ETOT 12  -797.96941573815    -3.879E-01 3.752E-01 1.221E+01
 ETOT 13  -798.05140345958    -8.199E-02 6.046E-01 5.798E+00
 ETOT 14  -798.12913493119    -7.773E-02 8.576E-01 1.563E+01
 ETOT 15  -798.27038144360    -1.412E-01 1.207E+00 1.083E+01
 ETOT 16  -798.40873499821    -1.384E-01 1.449E+00 1.571E+01
 ETOT 17  -798.54790817998    -1.392E-01 1.773E+00 1.273E+01
 ETOT 18  -798.69464251941    -1.467E-01 1.902E+00 2.188E+01
 ETOT 19  -798.85709115686    -1.624E-01 2.133E+00 1.741E+01
 ETOT 20  -799.01893389445    -1.618E-01 2.148E+00 2.448E+01
 ETOT 21  -799.10078540592    -8.185E-02 2.272E+00 8.860E+00
 ETOT 22  -799.22657348206    -1.258E-01 2.195E+00 1.356E+01
 ETOT 23  -799.33663185273    -1.101E-01 2.313E+00 1.081E+01
 ETOT 24  -799.42472373166    -8.809E-02 2.207E+00 1.229E+01
 ETOT 25  -799.50286344654    -7.814E-02 2.300E+00 6.297E+00
 ETOT 26  -799.57820217120    -7.534E-02 2.166E+00 3.583E+00
 ETOT 27  -799.65097737249    -7.278E-02 2.273E+00 3.200E+00
 ETOT 28  -799.71744143171    -6.646E-02 2.170E+00 4.024E+00
 ETOT 29  -799.77540014699    -5.796E-02 2.272E+00 2.275E+00
 ETOT 30  -799.82694246368    -5.154E-02 2.162E+00 2.836E+00
 ETOT 31  -799.87141659808    -4.447E-02 2.255E+00 8.086E-01
 ETOT 32  -799.91475002278    -4.333E-02 2.135E+00 4.129E-01
 ETOT 33  -799.95546342056    -4.071E-02 2.235E+00 6.554E-02
 ETOT 34  -799.99246795031    -3.700E-02 2.123E+00 1.317E-01
 ETOT 35  -800.02618737987    -3.372E-02 2.226E+00 1.167E-03
 ETOT 36  -800.05709672049    -3.091E-02 2.117E+00 6.104E-02
 ETOT 37  -800.08536905584    -2.827E-02 2.224E+00 1.590E-03
 ETOT 38  -800.11122875383    -2.586E-02 2.114E+00 1.253E-02
 ETOT 39  -800.13488800266    -2.366E-02 2.222E+00 2.427E-02
 ETOT 40  -800.15672878296    -2.184E-02 2.113E+00 1.508E-02
 ETOT 41  -800.17663860534    -1.991E-02 2.223E+00 2.665E-02
 ETOT 42  -800.19507906903    -1.844E-02 2.113E+00 4.852E-03
 ETOT 43  -800.21202847923    -1.695E-02 2.226E+00 1.336E-02
 ETOT 44  -800.22774002226    -1.571E-02 2.116E+00 1.973E-02
 ETOT 45  -800.24234681252    -1.461E-02 2.229E+00 2.085E-02
 ETOT 46  -800.25546793505    -1.312E-02 2.116E+00 8.951E-03
 ETOT 47  -800.26786737397    -1.240E-02 2.229E+00 4.173E-02
 ETOT 48  -800.27964813294    -1.178E-02 2.116E+00 2.352E-02
 ETOT 49  -800.28978858553    -1.014E-02 2.229E+00 7.364E-02
 ETOT 50  -800.29958410604    -9.796E-03 2.118E+00 1.394E-02
 ETOT 51  -800.30829350010    -8.709E-03 2.236E+00 8.920E-03
 ETOT 52  -800.31764638156    -9.353E-03 2.117E+00 9.788E-02
 ETOT 53  -800.32490279820    -7.256E-03 2.231E+00 7.581E-02
 ETOT 54  -800.33225082071    -7.348E-03 2.121E+00 2.843E-02
 ETOT 55  -800.33918055231    -6.930E-03 2.245E+00 1.971E-01
 ETOT 56  -800.34523511280    -6.055E-03 2.139E+00 2.355E-01
 ETOT 57  -800.35042274946    -5.188E-03 2.249E+00 5.214E-02
 ETOT 58  -800.35570833217    -5.286E-03 2.137E+00 4.654E-02
 ETOT 59  -800.36071038686    -5.002E-03 2.247E+00 1.803E-02
 ETOT 60  -800.36536475130    -4.654E-03 2.137E+00 2.670E-02
 ETOT 61  -800.36969495195    -4.330E-03 2.246E+00 1.193E-02
 ETOT 62  -800.37374521093    -4.050E-03 2.139E+00 4.699E-02
 ETOT 63  -800.37750747324    -3.762E-03 2.248E+00 2.676E-02
 ETOT 64  -800.38097786822    -3.470E-03 2.142E+00 4.578E-02
 ETOT 65  -800.38411027101    -3.132E-03 2.247E+00 2.801E-03
 ETOT 66  -800.38712334637    -3.013E-03 2.141E+00 6.954E-03
 ETOT 67  -800.38992440331    -2.801E-03 2.245E+00 5.466E-04
 ETOT 68  -800.39253435422    -2.610E-03 2.143E+00 4.923E-03
 ETOT 69  -800.39495739338    -2.423E-03 2.245E+00 7.011E-04
 ETOT 70  -800.39721758492    -2.260E-03 2.145E+00 6.332E-03
 ETOT 71  -800.39933214917    -2.115E-03 2.246E+00 4.272E-03
 ETOT 72  -800.40126933916    -1.937E-03 2.147E+00 3.143E-03
 ETOT 73  -800.40308378909    -1.814E-03 2.245E+00 1.250E-03
 ETOT 74  -800.40477513310    -1.691E-03 2.148E+00 3.309E-03
 ETOT 75  -800.40634444154    -1.569E-03 2.245E+00 1.888E-03
 ETOT 76  -800.40781735765    -1.473E-03 2.149E+00 2.191E-03
 ETOT 77  -800.40919830272    -1.381E-03 2.245E+00 2.833E-03
 ETOT 78  -800.41047449288    -1.276E-03 2.152E+00 5.071E-03
 ETOT 79  -800.41166684620    -1.192E-03 2.246E+00 4.693E-03
 ETOT 80  -800.41276818362    -1.101E-03 2.155E+00 7.081E-03
 ETOT 81  -800.41372559536    -9.574E-04 2.244E+00 1.904E-02
 ETOT 82  -800.41470774156    -9.821E-04 2.152E+00 2.118E-02
 ETOT 83  -800.41564451603    -9.368E-04 2.240E+00 5.275E-02
 ETOT 84  -800.41647527593    -8.308E-04 2.152E+00 4.365E-02
 ETOT 85  -800.41719978595    -7.245E-04 2.239E+00 4.437E-02
 ETOT 86  -800.41789786243    -6.981E-04 2.154E+00 2.713E-02
 ETOT 87  -800.41845193548    -5.541E-04 2.241E+00 1.659E-02
 ETOT 88  -800.41911481334    -6.629E-04 2.156E+00 3.332E-02
 ETOT 89  -800.41973354603    -6.187E-04 2.238E+00 5.631E-02
 ETOT 90  -800.42027120167    -5.377E-04 2.157E+00 4.759E-02
 ETOT 91  -800.42085611526    -5.849E-04 2.236E+00 9.296E-02
 ETOT 92  -800.42110367611    -2.476E-04 2.160E+00 2.270E-02
 ETOT 93  -800.42145752294    -3.538E-04 2.240E+00 4.038E-03
 ETOT 94  -800.42184649847    -3.890E-04 2.166E+00 5.232E-04
 ETOT 95  -800.42221586713    -3.694E-04 2.242E+00 1.551E-03
 ETOT 96  -800.42256016233    -3.443E-04 2.170E+00 6.735E-04
 ETOT 97  -800.42287859874    -3.184E-04 2.242E+00 9.090E-05
 ETOT 98  -800.42317627400    -2.977E-04 2.175E+00 5.656E-05
 ETOT 99  -800.42345225729    -2.760E-04 2.241E+00 2.058E-04
 ETOT  100  -800.42372402511    -2.718E-04 2.181E+00 3.313E-03
 
 Cartesian components of stress tensor (hartree/bohr^3)
  sigma(1 1)= -4.32271527E-03  sigma(3 2)=  0.00000000E+00
  sigma(2 2)= -4.32271527E-03  sigma(3 1)=  0.00000000E+00
  sigma(3 3)= -4.32271527E-03  sigma(2 1)=  0.00000000E+00
 
 
 scprqt:  WARNING -
  nstep=  100 was not enough SCF cycles to converge;
  maximum energy difference=  2.718E-04 exceeds toldfe=  1.000E-05
 
 Integrated electronic density in atomic spheres:
 ------------------------------------------------
 Atom  Sphere_radius  Integrated_density
    1        2.31519          7.04673713
    2        2.31519          7.04673713
    3        2.31519          7.04673713
    4        2.31519          6.96723830
    5        2.31519          7.10036393
    6        2.31519          7.04673713
    7        2.31519          7.04673713
    8        2.31519          6.96723830
    9        2.31519          7.04673713
   10        2.31519          7.10036393
   11        2.31519          7.04673713
   12        2.31519          7.03451602
   13        2.31519          7.10036393
   14        2.31519          7.10036393
   15        2.31519          7.04673713
   16        2.31519          6.96723830
   17        2.31519          7.04673713
   18        2.31519          7.04673713
   19        2.31519          7.10036393
   20        2.31519          7.03451602
   21        2.31519          7.10036393
   22        2.31519          7.04673713
   23        2.31519          7.10036393
   24        2.31519          7.03451602
   25        2.31519          7.04673713
   26        2.31519          7.10036393
   27        2.31519          7.10036393
   28        2.31519          7.11174310
   29        2.31519          7.10036393
   30        2.31519          7.10036393
   31        2.31519          7.10036393
 
 PAW TEST:
 ==== Compensation charge inside spheres ============
 The following values must be close to each other ...
 Compensation charge over spherical meshes =    -83.912318660566029
 Compensation charge over fine fft grid    =    -83.781074206917538
 
 ==== Results concerning PAW augmentation regions ====
 
 Total pseudopotential strength Dij (hartree):
 Atom #  1
   0.41379   0.06327   0.00048   0.00000   0.00048   0.00011   0.00000   0.00011  -0.00011   0.00000   0.00003   0.00000 ...
   0.06327   0.00884   0.00010   0.00000   0.00010   0.00008   0.00000   0.00008  -0.00003   0.00000   0.00001   0.00000 ...
   0.00048   0.00010  -0.17391   0.00000  -0.00016   0.00060   0.00000  -0.00008   0.00018   0.00000  -0.00009   0.00000 ...
   0.00000   0.00000   0.00000  -0.17383   0.00000   0.00000   0.00066   0.00000   0.00000   0.00009   0.00000   0.00009 ...
   0.00048   0.00010  -0.00016   0.00000  -0.17391  -0.00008   0.00000   0.00060   0.00018   0.00000  -0.00009   0.00000 ...
   0.00011   0.00008   0.00060   0.00000  -0.00008  -1.14554   0.00000  -0.00024   0.00017   0.00000  -0.00008   0.00000 ...
   0.00000   0.00000   0.00000   0.00066   0.00000   0.00000  -1.14536   0.00000   0.00000   0.00007   0.00000   0.00007 ...
   0.00011   0.00008  -0.00008   0.00000   0.00060  -0.00024   0.00000  -1.14554   0.00017   0.00000  -0.00008   0.00000 ...
  -0.00011  -0.00003   0.00018   0.00000   0.00018   0.00017   0.00000   0.00017  -0.03054   0.00000   0.00002   0.00000 ...
   0.00000   0.00000   0.00000   0.00009   0.00000   0.00000   0.00007   0.00000   0.00000  -0.03053   0.00000  -0.00002 ...
   0.00003   0.00001  -0.00009   0.00000  -0.00009  -0.00008   0.00000  -0.00008   0.00002   0.00000  -0.03055   0.00000 ...
   0.00000   0.00000   0.00000   0.00009   0.00000   0.00000   0.00007   0.00000   0.00000  -0.00002   0.00000  -0.03053 ...
   ...  only 12  components have been written...
 Atom # 31
   0.41510   0.06351   0.00017   0.00017   0.00000  -0.00007  -0.00007   0.00000   0.00000  -0.00005  -0.00001   0.00000 ...
   0.06351   0.00889   0.00003   0.00003   0.00000  -0.00000  -0.00000   0.00000   0.00000  -0.00001  -0.00000   0.00000 ...
   0.00017   0.00003  -0.17325  -0.00008   0.00000   0.00086  -0.00003   0.00000   0.00000   0.00003  -0.00001   0.00000 ...
   0.00017   0.00003  -0.00008  -0.17325   0.00000  -0.00003   0.00086   0.00000   0.00000   0.00003   0.00003   0.00000 ...
   0.00000   0.00000   0.00000   0.00000  -0.17318   0.00000   0.00000   0.00093   0.00003   0.00000   0.00000   0.00003 ...
  -0.00007  -0.00000   0.00086  -0.00003   0.00000  -1.14476  -0.00009   0.00000   0.00000   0.00001   0.00000   0.00000 ...
  -0.00007  -0.00000  -0.00003   0.00086   0.00000  -0.00009  -1.14476   0.00000   0.00000   0.00001  -0.00000   0.00000 ...
   0.00000   0.00000   0.00000   0.00000   0.00093   0.00000   0.00000  -1.14466  -0.00001   0.00000   0.00000  -0.00001 ...
   0.00000   0.00000   0.00000   0.00000   0.00003   0.00000   0.00000  -0.00001  -0.03040   0.00000   0.00000  -0.00001 ...
  -0.00005  -0.00001   0.00003   0.00003   0.00000   0.00001   0.00001   0.00000   0.00000  -0.03043  -0.00000   0.00000 ...
  -0.00001  -0.00000  -0.00001   0.00003   0.00000   0.00000  -0.00000   0.00000   0.00000  -0.00000  -0.03044   0.00000 ...
   0.00000   0.00000   0.00000   0.00000   0.00003   0.00000   0.00000  -0.00001  -0.00001   0.00000   0.00000  -0.03040 ...
   ...  only 12  components have been written...
 
 
 Augmentation waves occupancies Rhoij:
 Atom #  1
   2.09177  -0.11388  -0.00169   0.00000  -0.00169  -0.00028   0.00000  -0.00028   0.01792   0.00000  -0.05636   0.00000 ...
  -0.11388   0.24069   0.00146   0.00000   0.00146   0.00136   0.00000   0.00136  -0.02364   0.00000   0.06670   0.00000 ...
  -0.00169   0.00146   1.86521   0.00000   0.01680   0.01088   0.00000  -0.00190   0.01076   0.00000  -0.02956   0.00000 ...
   0.00000   0.00000   0.00000   1.88614   0.00000   0.00000   0.00879   0.00000   0.00000   0.01218   0.00000   0.01218 ...
  -0.00169   0.00146   0.01680   0.00000   1.86521  -0.00190   0.00000   0.01088   0.01076   0.00000  -0.02956   0.00000 ...
  -0.00028   0.00136   0.01088   0.00000  -0.00190   0.00151   0.00000   0.00009   0.00057   0.00000   0.00215   0.00000 ...
   0.00000   0.00000   0.00000   0.00879   0.00000   0.00000   0.00183   0.00000   0.00000  -0.00030   0.00000  -0.00030 ...
  -0.00028   0.00136  -0.00190   0.00000   0.01088   0.00009   0.00000   0.00151   0.00057   0.00000   0.00215   0.00000 ...
   0.01792  -0.02364   0.01076   0.00000   0.01076   0.00057   0.00000   0.00057   0.43418   0.00000   0.02264   0.00000 ...
   0.00000   0.00000   0.00000   0.01218   0.00000   0.00000  -0.00030   0.00000   0.00000   0.44849   0.00000  -0.04550 ...
  -0.05636   0.06670  -0.02956   0.00000  -0.02956   0.00215   0.00000   0.00215   0.02264   0.00000   0.55721   0.00000 ...
   0.00000   0.00000   0.00000   0.01218   0.00000   0.00000  -0.00030   0.00000   0.00000  -0.04550   0.00000   0.44849 ...
   ...  only 12  components have been written...
 Atom # 31
   2.11485  -0.13909  -0.00119  -0.00119   0.00000  -0.00000  -0.00000   0.00000   0.00000  -0.00864  -0.00982   0.00000 ...
  -0.13909   0.27609   0.00220   0.00220   0.00000  -0.00018  -0.00018   0.00000   0.00000   0.00702   0.00945   0.00000 ...
  -0.00119   0.00220   1.85249   0.00725   0.00000   0.01227  -0.00074   0.00000   0.00000   0.00372  -0.00850   0.00000 ...
  -0.00119   0.00220   0.00725   1.85249   0.00000  -0.00074   0.01227   0.00000   0.00000   0.00372  -0.00166   0.00000 ...
   0.00000   0.00000   0.00000   0.00000   1.88117   0.00000   0.00000   0.00966  -0.01473   0.00000   0.00000  -0.01473 ...
  -0.00000  -0.00018   0.01227  -0.00074   0.00000   0.00156   0.00003   0.00000   0.00000  -0.00017   0.00067   0.00000 ...
  -0.00000  -0.00018  -0.00074   0.01227   0.00000   0.00003   0.00156   0.00000   0.00000  -0.00017   0.00058   0.00000 ...
   0.00000   0.00000   0.00000   0.00000   0.00966   0.00000   0.00000   0.00185   0.00165   0.00000   0.00000   0.00165 ...
   0.00000   0.00000   0.00000   0.00000  -0.01473   0.00000   0.00000   0.00165   0.49303   0.00000   0.00000  -0.03609 ...
  -0.00864   0.00702   0.00372   0.00372   0.00000  -0.00017  -0.00017   0.00000   0.00000   0.46321   0.01348   0.00000 ...
  -0.00982   0.00945  -0.00850  -0.00166   0.00000   0.00067   0.00058   0.00000   0.00000   0.01348   0.53559   0.00000 ...
   0.00000   0.00000   0.00000   0.00000  -0.01473   0.00000   0.00000   0.00165  -0.03609   0.00000   0.00000   0.49303 ...
   ...  only 12  components have been written...
 
 
================================================================================
 
 ----iterations are completed or convergence reached----
 
 Mean square residual over all n,k,spin=   43.110E-03; max=  21.810E-01
 reduced coordinates (array xred) for   31 atoms
       0.250000000000      0.250000000000      0.000000000000
       0.250000000000      0.000000000000      0.250000000000
       0.000000000000      0.250000000000      0.250000000000
       0.000000000000      0.000000000000      0.500000000000
       0.250000000000      0.250000000000      0.500000000000
       0.250000000000      0.000000000000      0.750000000000
       0.000000000000      0.250000000000      0.750000000000
       0.000000000000      0.500000000000      0.000000000000
       0.250000000000      0.750000000000      0.000000000000
       0.250000000000      0.500000000000      0.250000000000
       0.000000000000      0.750000000000      0.250000000000
       0.000000000000      0.500000000000      0.500000000000
       0.250000000000      0.750000000000      0.500000000000
       0.250000000000      0.500000000000      0.750000000000
       0.000000000000      0.750000000000      0.750000000000
       0.500000000000      0.000000000000      0.000000000000
       0.750000000000      0.250000000000      0.000000000000
       0.750000000000      0.000000000000      0.250000000000
       0.500000000000      0.250000000000      0.250000000000
       0.500000000000      0.000000000000      0.500000000000
       0.750000000000      0.250000000000      0.500000000000
       0.750000000000      0.000000000000      0.750000000000
       0.500000000000      0.250000000000      0.750000000000
       0.500000000000      0.500000000000      0.000000000000
       0.750000000000      0.750000000000      0.000000000000
       0.750000000000      0.500000000000      0.250000000000
       0.500000000000      0.750000000000      0.250000000000
       0.500000000000      0.500000000000      0.500000000000
       0.750000000000      0.750000000000      0.500000000000
       0.750000000000      0.500000000000      0.750000000000
       0.500000000000      0.750000000000      0.750000000000
 rms dE/dt=  1.9489E-01; max dE/dt=  3.7160E-01; dE/dt below (all hartree)
    1       0.371602573404      0.371602573404      0.000000000000
    2       0.371602573404      0.000000000000      0.371602573404
    3       0.000000000000      0.371602573404      0.371602573404
    4       0.000000000000      0.000000000000      0.000000000000
    5      -0.095348433075     -0.095348433075      0.000000000000
    6       0.371602573404      0.000000000000     -0.371602573404
    7       0.000000000000      0.371602573404     -0.371602573404
    8       0.000000000000      0.000000000000      0.000000000000
    9       0.371602573404     -0.371602573404      0.000000000000
   10      -0.095348433075      0.000000000000     -0.095348433075
   11       0.000000000000     -0.371602573404      0.371602573404
   12       0.000000000000      0.000000000000      0.000000000000
   13      -0.095348433075      0.095348433075      0.000000000000
   14      -0.095348433075      0.000000000000      0.095348433075
   15       0.000000000000     -0.371602573404     -0.371602573404
   16       0.000000000000      0.000000000000      0.000000000000
   17      -0.371602573404      0.371602573404      0.000000000000
   18      -0.371602573404      0.000000000000      0.371602573404
   19       0.000000000000     -0.095348433075     -0.095348433075
   20       0.000000000000      0.000000000000      0.000000000000
   21       0.095348433075     -0.095348433075      0.000000000000
   22      -0.371602573404      0.000000000000     -0.371602573404
   23       0.000000000000     -0.095348433075      0.095348433075
   24       0.000000000000      0.000000000000      0.000000000000
   25      -0.371602573404     -0.371602573404      0.000000000000
   26       0.095348433075      0.000000000000     -0.095348433075
   27       0.000000000000      0.095348433075     -0.095348433075
   28       0.000000000000      0.000000000000      0.000000000000
   29       0.095348433075      0.095348433075      0.000000000000
   30       0.095348433075      0.000000000000      0.095348433075
   31       0.000000000000      0.095348433075      0.095348433075
 
 cartesian coordinates (angstrom) at end:
    1      2.02939459494265     2.02939459494265     0.00000000000000
    2      2.02939459494265     0.00000000000000     2.02939459494265
    3      0.00000000000000     2.02939459494265     2.02939459494265
    4      0.00000000000000     0.00000000000000     4.05878918988530
    5      2.02939459494265     2.02939459494265     4.05878918988530
    6      2.02939459494265     0.00000000000000     6.08818378482795
    7      0.00000000000000     2.02939459494265     6.08818378482795
    8      0.00000000000000     4.05878918988530     0.00000000000000
    9      2.02939459494265     6.08818378482795     0.00000000000000
   10      2.02939459494265     4.05878918988530     2.02939459494265
   11      0.00000000000000     6.08818378482795     2.02939459494265
   12      0.00000000000000     4.05878918988530     4.05878918988530
   13      2.02939459494265     6.08818378482795     4.05878918988530
   14      2.02939459494265     4.05878918988530     6.08818378482795
   15      0.00000000000000     6.08818378482795     6.08818378482795
   16      4.05878918988530     0.00000000000000     0.00000000000000
   17      6.08818378482795     2.02939459494265     0.00000000000000
   18      6.08818378482795     0.00000000000000     2.02939459494265
   19      4.05878918988530     2.02939459494265     2.02939459494265
   20      4.05878918988530     0.00000000000000     4.05878918988530
   21      6.08818378482795     2.02939459494265     4.05878918988530
   22      6.08818378482795     0.00000000000000     6.08818378482795
   23      4.05878918988530     2.02939459494265     6.08818378482795
   24      4.05878918988530     4.05878918988530     0.00000000000000
   25      6.08818378482795     6.08818378482795     0.00000000000000
   26      6.08818378482795     4.05878918988530     2.02939459494265
   27      4.05878918988530     6.08818378482795     2.02939459494265
   28      4.05878918988530     4.05878918988530     4.05878918988530
   29      6.08818378482795     6.08818378482795     4.05878918988530
   30      6.08818378482795     4.05878918988530     6.08818378482795
   31      4.05878918988530     6.08818378482795     6.08818378482795
 
 cartesian forces (hartree/bohr) at end:
    1     -0.02422441808373    -0.02422441808373     0.00000000000000
    2     -0.02422441808373    -0.00000000000000    -0.02422441808373
    3     -0.00000000000000    -0.02422441808373    -0.02422441808373
    4     -0.00000000000000    -0.00000000000000     0.00000000000000
    5      0.00621567360335     0.00621567360335     0.00000000000000
    6     -0.02422441808373    -0.00000000000000     0.02422441808373
    7     -0.00000000000000    -0.02422441808373     0.02422441808373
    8     -0.00000000000000    -0.00000000000000     0.00000000000000
    9     -0.02422441808373     0.02422441808373     0.00000000000000
   10      0.00621567360335    -0.00000000000000     0.00621567360335
   11     -0.00000000000000     0.02422441808373    -0.02422441808373
   12     -0.00000000000000    -0.00000000000000     0.00000000000000
   13      0.00621567360335    -0.00621567360335     0.00000000000000
   14      0.00621567360335    -0.00000000000000    -0.00621567360335
   15     -0.00000000000000     0.02422441808373     0.02422441808373
   16     -0.00000000000000    -0.00000000000000     0.00000000000000
   17      0.02422441808373    -0.02422441808373     0.00000000000000
   18      0.02422441808373    -0.00000000000000    -0.02422441808373
   19     -0.00000000000000     0.00621567360335     0.00621567360335
   20     -0.00000000000000    -0.00000000000000     0.00000000000000
   21     -0.00621567360335     0.00621567360335     0.00000000000000
   22      0.02422441808373    -0.00000000000000     0.02422441808373
   23     -0.00000000000000     0.00621567360335    -0.00621567360335
   24     -0.00000000000000    -0.00000000000000     0.00000000000000
   25      0.02422441808373     0.02422441808373     0.00000000000000
   26     -0.00621567360335    -0.00000000000000     0.00621567360335
   27     -0.00000000000000    -0.00621567360335     0.00621567360335
   28     -0.00000000000000    -0.00000000000000     0.00000000000000
   29     -0.00621567360335    -0.00621567360335     0.00000000000000
   30     -0.00621567360335    -0.00000000000000    -0.00621567360335
   31     -0.00000000000000    -0.00621567360335    -0.00621567360335
 frms,max,avg= 1.2704655E-02 2.4224418E-02   0.000E+00  0.000E+00  0.000E+00 h/b
 
 cartesian forces (eV/Angstrom) at end:
    1     -1.24566955749637    -1.24566955749637     0.00000000000000
    2     -1.24566955749637    -0.00000000000000    -1.24566955749637
    3     -0.00000000000000    -1.24566955749637    -1.24566955749637
    4     -0.00000000000000    -0.00000000000000     0.00000000000000
    5      0.31962276081350     0.31962276081350     0.00000000000000
    6     -1.24566955749637    -0.00000000000000     1.24566955749637
    7     -0.00000000000000    -1.24566955749637     1.24566955749637
    8     -0.00000000000000    -0.00000000000000     0.00000000000000
    9     -1.24566955749637     1.24566955749637     0.00000000000000
   10      0.31962276081350    -0.00000000000000     0.31962276081350
   11     -0.00000000000000     1.24566955749637    -1.24566955749637
   12     -0.00000000000000    -0.00000000000000     0.00000000000000
   13      0.31962276081350    -0.31962276081350     0.00000000000000
   14      0.31962276081350    -0.00000000000000    -0.31962276081350
   15     -0.00000000000000     1.24566955749637     1.24566955749637
   16     -0.00000000000000    -0.00000000000000     0.00000000000000
   17      1.24566955749637    -1.24566955749637     0.00000000000000
   18      1.24566955749637    -0.00000000000000    -1.24566955749637
   19     -0.00000000000000     0.31962276081350     0.31962276081350
   20     -0.00000000000000    -0.00000000000000     0.00000000000000
   21     -0.31962276081350     0.31962276081350     0.00000000000000
   22      1.24566955749637    -0.00000000000000     1.24566955749637
   23     -0.00000000000000     0.31962276081350    -0.31962276081350
   24     -0.00000000000000    -0.00000000000000     0.00000000000000
   25      1.24566955749637     1.24566955749637     0.00000000000000
   26     -0.31962276081350    -0.00000000000000     0.31962276081350
   27     -0.00000000000000    -0.31962276081350     0.31962276081350
   28     -0.00000000000000    -0.00000000000000     0.00000000000000
   29     -0.31962276081350    -0.31962276081350     0.00000000000000
   30     -0.31962276081350    -0.00000000000000    -0.31962276081350
   31     -0.00000000000000    -0.31962276081350    -0.31962276081350
 frms,max,avg= 6.5329959E-01 1.2456696E+00   0.000E+00  0.000E+00  0.000E+00 e/A
 length scales= 15.340000000000 15.340000000000 15.340000000000 bohr
              =  8.117578379771  8.117578379771  8.117578379771 angstroms
 Fermi (or HOMO) energy (hartree) =   0.39080   Average Vxc (hartree)=  -0.49570
 Eigenvalues (hartree) for nkpt=   1  k points:
 kpt#   1, nband=192, wtk=  1.00000, kpt=  0.0000  0.0000  0.0000 (reduced coord)
  -0.78405   -0.72621   -0.72621   -0.72046   -0.72046   -0.72046   -0.70837   -0.67957
  -0.67957   -0.67346   -0.67305   -0.67305   -0.67305   -0.67275   -0.67275   -0.67275
  -0.66974   -0.66974   -0.66974   -0.66241   -0.66241   -0.66241   -0.63127   -0.61906
  -0.61793   -0.61793   -0.61428   -0.61428   -0.61265   -0.61265   -0.61265   -0.33386
  -0.32900   -0.32900   -0.32900   -0.30081   -0.30081   -0.30081   -0.23768   -0.23683
  -0.23683   -0.23683   -0.23095   -0.23095   -0.23095   -0.23037   -0.23037   -0.23037
  -0.22866   -0.22866   -0.22844   -0.22844   -0.22844   -0.22791   -0.22791   -0.22791
  -0.22432   -0.22432   -0.22432   -0.20419   -0.20419   -0.20419   -0.15892   -0.15892
  -0.15865   -0.15865   -0.15865   -0.15557   -0.14966   -0.14966   -0.14966   -0.14820
  -0.14820   -0.14820   -0.14662   -0.13812   -0.13812   -0.13417   -0.13417   -0.13417
  -0.13039   -0.12291   -0.12291   -0.11536   -0.11536   -0.11536   -0.09745   -0.09745
  -0.09745   -0.07530   -0.07530   -0.07530   -0.03853   -0.03853   -0.03853   -0.03792
  -0.03792   -0.03792   -0.03313   -0.03313   -0.03313   -0.02028   -0.02028   -0.02028
  -0.00435   -0.00435   -0.00435   -0.00262   -0.00244   -0.00244   -0.00244   -0.00181
  -0.00181   -0.00181    0.00273    0.00273    0.00339    0.00339    0.00670    0.00670
   0.00670    0.05269    0.05269    0.05269    0.21684    0.23235    0.23235    0.24530
   0.24530    0.24530    0.31472    0.31854    0.31855    0.32852    0.32853    0.32854
   0.32959    0.36303    0.36307    0.36319    0.36628    0.37805    0.37806    0.37807
   0.38023    0.38031    0.38216    0.38218    0.38219    0.38465    0.38493    0.38494
   0.38500    0.39137    0.39165    0.39221    0.39221    0.39224    0.39407    0.39411
   0.39481    0.40364    0.42715    0.42760    0.46573    0.46713    0.46794    0.46855
   0.47193    0.48030    0.48687    0.48736    0.48946    0.49131    0.49597    0.50492
   0.51433    0.53242    0.53274    0.53567    0.54128    0.54905    0.55823    0.58751
   0.59493    0.64553    0.78668    0.82731    1.01043    1.18118    1.62713    1.67160
      occupation numbers for kpt#   1
   2.00000    2.00000    2.00000    2.00000    2.00000    2.00000    2.00000    2.00000
   2.00000    2.00000    2.00000    2.00000    2.00000    2.00000    2.00000    2.00000
   2.00000    2.00000    2.00000    2.00000    2.00000    2.00000    2.00000    2.00000
   2.00000    2.00000    2.00000    2.00000    2.00000    2.00000    2.00000    2.00000
   2.00000    2.00000    2.00000    2.00000    2.00000    2.00000    2.00000    2.00000
   2.00000    2.00000    2.00000    2.00000    2.00000    2.00000    2.00000    2.00000
   2.00000    2.00000    2.00000    2.00000    2.00000    2.00000    2.00000    2.00000
   2.00000    2.00000    2.00000    2.00000    2.00000    2.00000    2.00000    2.00000
   2.00000    2.00000    2.00000    2.00000    2.00000    2.00000    2.00000    2.00000
   2.00000    2.00000    2.00000    2.00000    2.00000    2.00000    2.00000    2.00000
   2.00000    2.00000    2.00000    2.00000    2.00000    2.00000    2.00000    2.00000
   2.00000    2.00000    2.00000    2.00000    2.00000    2.00000    2.00000    2.00000
   2.00000    2.00000    2.00000    2.00000    2.00000    2.00000    2.00000    2.00000
   2.00000    2.00000    2.00000    2.00000    2.00000    2.00000    2.00000    2.00000
   2.00000    2.00000    2.00000    2.00000    2.00000    2.00000    2.00000    2.00000
   2.00000    2.00000    2.00000    2.00000    2.00000    2.00000    2.00000    2.00000
   2.00000    2.00000    2.00000    2.00000    2.00000    2.00000    2.00000    2.00000
   2.00000    2.00000    2.00000    2.00000    1.99999    1.99659    1.99657    1.99656
   1.98991    1.98948    1.97364    1.97341    1.97325    1.91144    1.89879    1.89838
   1.89534    0.85641    0.78974    0.66083    0.65977    0.65312    0.32611    0.32042
   0.23703    0.00324    0.00000    0.00000    0.00000    0.00000    0.00000    0.00000
   0.00000    0.00000    0.00000    0.00000    0.00000    0.00000    0.00000    0.00000
   0.00000    0.00000    0.00000    0.00000    0.00000    0.00000    0.00000    0.00000
   0.00000    0.00000    0.00000    0.00000    0.00000    0.00000    0.00000    0.00000
 
--------------------------------------------------------------------------------
 Components of total free energy (in Hartree) :
 
    Kinetic energy  =  3.06258594402210E+02
    Hartree energy  =  3.63493870278554E+01
    XC energy       = -1.89190989854681E+02
    Ewald energy    = -9.05896420881061E+02
    PspCore energy  =  1.58170863145426E+02
    Loc. psp. energy= -1.22070381331253E+02
    Spherical terms = -8.42290013405310E+01
    >>>>> Internal E= -8.00607948832035E+02
 
    -kT*entropy     = -2.24673251630767E-02
    >>>>>>>>> Etotal= -8.00630416157198E+02
 
 "Double-counting" decomposition of free energy:
    Band energy     = -4.40430152372991E+01
    Ewald energy    = -9.05896420881061E+02
    PspCore energy  =  1.58170863145426E+02
    Dble-C XC-energy=  1.75737158032505E+01
    Spherical terms = -2.62063995302687E+01
    >>>>> Internal E= -8.00401256699952E+02
 
    -kT*entropy     = -2.24673251630767E-02
    >>>> Etotal (DC)= -8.00423724025115E+02
 
  >Total energy in eV           = -2.17862615840451E+04
  >Total DC energy in eV        = -2.17806372050981E+04
--------------------------------------------------------------------------------
 
 Cartesian components of stress tensor (hartree/bohr^3)
  sigma(1 1)= -4.32271527E-03  sigma(3 2)=  0.00000000E+00
  sigma(2 2)= -4.32271527E-03  sigma(3 1)=  0.00000000E+00
  sigma(3 3)= -4.32271527E-03  sigma(2 1)=  0.00000000E+00
 
-Cartesian components of stress tensor (GPa)         [Pressure=  1.2718E+02 GPa]
- sigma(1 1)= -1.27178653E+02  sigma(3 2)=  0.00000000E+00
- sigma(2 2)= -1.27178653E+02  sigma(3 1)=  0.00000000E+00
- sigma(3 3)= -1.27178653E+02  sigma(2 1)=  0.00000000E+00
 
== END DATASET(S) ==============================================================
================================================================================
  
 -outvars: echo values of variables after computation  --------
            acell      1.5340000000E+01  1.5340000000E+01  1.5340000000E+01 Bohr
              amu      1.37327000E+02
           bandpp         192
      chksymbreak           0
             ecut      8.00000000E+00 Hartree
           etotal     -8.0042372403E+02
            fcart     -2.4224418084E-02 -2.4224418084E-02  0.0000000000E+00
                      -2.4224418084E-02 -1.6787646542E-19 -2.4224418084E-02
                      -3.0777351993E-19 -2.4224418084E-02 -2.4224418084E-02
                      -3.0777351993E-19 -1.6787646542E-19  0.0000000000E+00
                       6.2156736033E-03  6.2156736033E-03  0.0000000000E+00
                      -2.4224418084E-02 -1.6787646542E-19  2.4224418084E-02
                      -3.0777351993E-19 -2.4224418084E-02  2.4224418084E-02
                      -3.0777351993E-19 -1.6787646542E-19  0.0000000000E+00
                      -2.4224418084E-02  2.4224418084E-02  0.0000000000E+00
                       6.2156736033E-03 -1.6787646542E-19  6.2156736033E-03
                      -3.0777351993E-19  2.4224418084E-02 -2.4224418084E-02
                      -3.0777351993E-19 -1.6787646542E-19  0.0000000000E+00
                       6.2156736033E-03 -6.2156736033E-03  0.0000000000E+00
                       6.2156736033E-03 -1.6787646542E-19 -6.2156736033E-03
                      -3.0777351993E-19  2.4224418084E-02  2.4224418084E-02
                      -3.0777351993E-19 -1.6787646542E-19  0.0000000000E+00
                       2.4224418084E-02 -2.4224418084E-02  0.0000000000E+00
                       2.4224418084E-02 -1.6787646542E-19 -2.4224418084E-02
                      -3.0777351993E-19  6.2156736033E-03  6.2156736033E-03
                      -3.0777351993E-19 -1.6787646542E-19  0.0000000000E+00
                      -6.2156736033E-03  6.2156736033E-03  0.0000000000E+00
                       2.4224418084E-02 -1.6787646542E-19  2.4224418084E-02
                      -3.0777351993E-19  6.2156736033E-03 -6.2156736033E-03
                      -3.0777351993E-19 -1.6787646542E-19  0.0000000000E+00
                       2.4224418084E-02  2.4224418084E-02  0.0000000000E+00
                      -6.2156736033E-03 -1.6787646542E-19  6.2156736033E-03
                      -3.0777351993E-19 -6.2156736033E-03  6.2156736033E-03
                      -3.0777351993E-19 -1.6787646542E-19  0.0000000000E+00
                      -6.2156736033E-03 -6.2156736033E-03  0.0000000000E+00
                      -6.2156736033E-03 -1.6787646542E-19 -6.2156736033E-03
                      -3.0777351993E-19 -6.2156736033E-03 -6.2156736033E-03
-          fftalg         312
           istwfk        2
              ixc           7
           kptopt           0
P           mkmem           1
            natom          31
            nband         192
            ngfft          40      40      40
          ngfftdg          45      45      45
             nkpt           1
            nline           1
            nstep         100
             nsym          48
           ntypat           1
              occ      2.000000  2.000000  2.000000  2.000000  2.000000  2.000000
                       2.000000  2.000000  2.000000  2.000000  2.000000  2.000000
                       2.000000  2.000000  2.000000  2.000000  2.000000  2.000000
                       2.000000  2.000000  2.000000  2.000000  2.000000  2.000000
                       2.000000  2.000000  2.000000  2.000000  2.000000  2.000000
                       2.000000  2.000000  2.000000  2.000000  2.000000  2.000000
                       2.000000  2.000000  2.000000  2.000000  2.000000  2.000000
                       2.000000  2.000000  2.000000  2.000000  2.000000  2.000000
                       2.000000  2.000000  2.000000  2.000000  2.000000  2.000000
                       2.000000  2.000000  2.000000  2.000000  2.000000  2.000000
                       2.000000  2.000000  2.000000  2.000000  2.000000  2.000000
                       2.000000  2.000000  2.000000  2.000000  2.000000  2.000000
                       2.000000  2.000000  2.000000  2.000000  2.000000  2.000000
                       2.000000  2.000000  2.000000  2.000000  2.000000  2.000000
                       2.000000  2.000000  2.000000  2.000000  2.000000  2.000000
                       2.000000  2.000000  2.000000  2.000000  2.000000  2.000000
                       2.000000  2.000000  2.000000  2.000000  2.000000  2.000000
                       2.000000  2.000000  2.000000  2.000000  2.000000  2.000000
                       2.000000  2.000000  2.000000  2.000000  2.000000  2.000000
                       2.000000  2.000000  2.000000  2.000000  2.000000  2.000000
                       2.000000  2.000000  2.000000  2.000000  2.000000  2.000000
                       2.000000  2.000000  2.000000  2.000000  2.000000  2.000000
                       2.000000  2.000000  2.000000  2.000000  2.000000  1.999998
                       1.999998  1.999998  1.999991  1.996586  1.996572  1.996555
                       1.989909  1.989484  1.973642  1.973406  1.973250  1.911442
                       1.898790  1.898376  1.895337  0.856411  0.789739  0.660832
                       0.659767  0.653122  0.326108  0.320422  0.237027  0.003237
                       0.000000  0.000000  0.000000  0.000000  0.000000  0.000000
                       0.000000  0.000000  0.000000  0.000000  0.000000  0.000000
                       0.000000  0.000000  0.000000  0.000000  0.000000  0.000000
                       0.000000  0.000000  0.000000  0.000000  0.000000  0.000000
                       0.000000  0.000000  0.000000  0.000000  0.000000  0.000000
           occopt           3
        pawecutdg      1.00000000E+01 Hartree
         pawmixdg           1
           prtden           0
           prteig           0
            prtwf           0
          spgroup         221
           strten     -4.3227152703E-03 -4.3227152703E-03 -4.3227152703E-03
                       0.0000000000E+00  0.0000000000E+00  0.0000000000E+00
           symrel      1  0  0   0  1  0   0  0  1      -1  0  0   0 -1  0   0  0 -1
                      -1  0  0   0  1  0   0  0 -1       1  0  0   0 -1  0   0  0  1
                      -1  0  0   0 -1  0   0  0  1       1  0  0   0  1  0   0  0 -1
                       1  0  0   0 -1  0   0  0 -1      -1  0  0   0  1  0   0  0  1
                       0  1  0   1  0  0   0  0  1       0 -1  0  -1  0  0   0  0 -1
                       0 -1  0   1  0  0   0  0 -1       0  1  0  -1  0  0   0  0  1
                       0 -1  0  -1  0  0   0  0  1       0  1  0   1  0  0   0  0 -1
                       0  1  0  -1  0  0   0  0 -1       0 -1  0   1  0  0   0  0  1
                       0  0  1   1  0  0   0  1  0       0  0 -1  -1  0  0   0 -1  0
                       0  0 -1   1  0  0   0 -1  0       0  0  1  -1  0  0   0  1  0
                       0  0 -1  -1  0  0   0  1  0       0  0  1   1  0  0   0 -1  0
                       0  0  1  -1  0  0   0 -1  0       0  0 -1   1  0  0   0  1  0
                       1  0  0   0  0  1   0  1  0      -1  0  0   0  0 -1   0 -1  0
                      -1  0  0   0  0  1   0 -1  0       1  0  0   0  0 -1   0  1  0
                      -1  0  0   0  0 -1   0  1  0       1  0  0   0  0  1   0 -1  0
                       1  0  0   0  0 -1   0 -1  0      -1  0  0   0  0  1   0  1  0
                       0  1  0   0  0  1   1  0  0       0 -1  0   0  0 -1  -1  0  0
                       0 -1  0   0  0  1  -1  0  0       0  1  0   0  0 -1   1  0  0
                       0 -1  0   0  0 -1   1  0  0       0  1  0   0  0  1  -1  0  0
                       0  1  0   0  0 -1  -1  0  0       0 -1  0   0  0  1   1  0  0
                       0  0  1   0  1  0   1  0  0       0  0 -1   0 -1  0  -1  0  0
                       0  0 -1   0  1  0  -1  0  0       0  0  1   0 -1  0   1  0  0
                       0  0 -1   0 -1  0   1  0  0       0  0  1   0  1  0  -1  0  0
                       0  0  1   0 -1  0  -1  0  0       0  0 -1   0  1  0   1  0  0
           timopt          -3
           toldfe      1.00000000E-05 Hartree
           tsmear      2.00000000E-03 Hartree
            typat      1  1  1  1  1  1  1  1  1  1  1  1  1  1  1  1  1  1  1  1
                       1  1  1  1  1  1  1  1  1  1  1
           useylm           1
         wfoptalg         111
           xangst      2.0293945949E+00  2.0293945949E+00  0.0000000000E+00
                       2.0293945949E+00  0.0000000000E+00  2.0293945949E+00
                       0.0000000000E+00  2.0293945949E+00  2.0293945949E+00
                       0.0000000000E+00  0.0000000000E+00  4.0587891899E+00
                       2.0293945949E+00  2.0293945949E+00  4.0587891899E+00
                       2.0293945949E+00  0.0000000000E+00  6.0881837848E+00
                       0.0000000000E+00  2.0293945949E+00  6.0881837848E+00
                       0.0000000000E+00  4.0587891899E+00  0.0000000000E+00
                       2.0293945949E+00  6.0881837848E+00  0.0000000000E+00
                       2.0293945949E+00  4.0587891899E+00  2.0293945949E+00
                       0.0000000000E+00  6.0881837848E+00  2.0293945949E+00
                       0.0000000000E+00  4.0587891899E+00  4.0587891899E+00
                       2.0293945949E+00  6.0881837848E+00  4.0587891899E+00
                       2.0293945949E+00  4.0587891899E+00  6.0881837848E+00
                       0.0000000000E+00  6.0881837848E+00  6.0881837848E+00
                       4.0587891899E+00  0.0000000000E+00  0.0000000000E+00
                       6.0881837848E+00  2.0293945949E+00  0.0000000000E+00
                       6.0881837848E+00  0.0000000000E+00  2.0293945949E+00
                       4.0587891899E+00  2.0293945949E+00  2.0293945949E+00
                       4.0587891899E+00  0.0000000000E+00  4.0587891899E+00
                       6.0881837848E+00  2.0293945949E+00  4.0587891899E+00
                       6.0881837848E+00  0.0000000000E+00  6.0881837848E+00
                       4.0587891899E+00  2.0293945949E+00  6.0881837848E+00
                       4.0587891899E+00  4.0587891899E+00  0.0000000000E+00
                       6.0881837848E+00  6.0881837848E+00  0.0000000000E+00
                       6.0881837848E+00  4.0587891899E+00  2.0293945949E+00
                       4.0587891899E+00  6.0881837848E+00  2.0293945949E+00
                       4.0587891899E+00  4.0587891899E+00  4.0587891899E+00
                       6.0881837848E+00  6.0881837848E+00  4.0587891899E+00
                       6.0881837848E+00  4.0587891899E+00  6.0881837848E+00
                       4.0587891899E+00  6.0881837848E+00  6.0881837848E+00
            xcart      3.8350000000E+00  3.8350000000E+00  0.0000000000E+00
                       3.8350000000E+00  0.0000000000E+00  3.8350000000E+00
                       0.0000000000E+00  3.8350000000E+00  3.8350000000E+00
                       0.0000000000E+00  0.0000000000E+00  7.6700000000E+00
                       3.8350000000E+00  3.8350000000E+00  7.6700000000E+00
                       3.8350000000E+00  0.0000000000E+00  1.1505000000E+01
                       0.0000000000E+00  3.8350000000E+00  1.1505000000E+01
                       0.0000000000E+00  7.6700000000E+00  0.0000000000E+00
                       3.8350000000E+00  1.1505000000E+01  0.0000000000E+00
                       3.8350000000E+00  7.6700000000E+00  3.8350000000E+00
                       0.0000000000E+00  1.1505000000E+01  3.8350000000E+00
                       0.0000000000E+00  7.6700000000E+00  7.6700000000E+00
                       3.8350000000E+00  1.1505000000E+01  7.6700000000E+00
                       3.8350000000E+00  7.6700000000E+00  1.1505000000E+01
                       0.0000000000E+00  1.1505000000E+01  1.1505000000E+01
                       7.6700000000E+00  0.0000000000E+00  0.0000000000E+00
                       1.1505000000E+01  3.8350000000E+00  0.0000000000E+00
                       1.1505000000E+01  0.0000000000E+00  3.8350000000E+00
                       7.6700000000E+00  3.8350000000E+00  3.8350000000E+00
                       7.6700000000E+00  0.0000000000E+00  7.6700000000E+00
                       1.1505000000E+01  3.8350000000E+00  7.6700000000E+00
                       1.1505000000E+01  0.0000000000E+00  1.1505000000E+01
                       7.6700000000E+00  3.8350000000E+00  1.1505000000E+01
                       7.6700000000E+00  7.6700000000E+00  0.0000000000E+00
                       1.1505000000E+01  1.1505000000E+01  0.0000000000E+00
                       1.1505000000E+01  7.6700000000E+00  3.8350000000E+00
                       7.6700000000E+00  1.1505000000E+01  3.8350000000E+00
                       7.6700000000E+00  7.6700000000E+00  7.6700000000E+00
                       1.1505000000E+01  1.1505000000E+01  7.6700000000E+00
                       1.1505000000E+01  7.6700000000E+00  1.1505000000E+01
                       7.6700000000E+00  1.1505000000E+01  1.1505000000E+01
             xred      2.5000000000E-01  2.5000000000E-01  0.0000000000E+00
                       2.5000000000E-01  0.0000000000E+00  2.5000000000E-01
                       0.0000000000E+00  2.5000000000E-01  2.5000000000E-01
                       0.0000000000E+00  0.0000000000E+00  5.0000000000E-01
                       2.5000000000E-01  2.5000000000E-01  5.0000000000E-01
                       2.5000000000E-01  0.0000000000E+00  7.5000000000E-01
                       0.0000000000E+00  2.5000000000E-01  7.5000000000E-01
                       0.0000000000E+00  5.0000000000E-01  0.0000000000E+00
                       2.5000000000E-01  7.5000000000E-01  0.0000000000E+00
                       2.5000000000E-01  5.0000000000E-01  2.5000000000E-01
                       0.0000000000E+00  7.5000000000E-01  2.5000000000E-01
                       0.0000000000E+00  5.0000000000E-01  5.0000000000E-01
                       2.5000000000E-01  7.5000000000E-01  5.0000000000E-01
                       2.5000000000E-01  5.0000000000E-01  7.5000000000E-01
                       0.0000000000E+00  7.5000000000E-01  7.5000000000E-01
                       5.0000000000E-01  0.0000000000E+00  0.0000000000E+00
                       7.5000000000E-01  2.5000000000E-01  0.0000000000E+00
                       7.5000000000E-01  0.0000000000E+00  2.5000000000E-01
                       5.0000000000E-01  2.5000000000E-01  2.5000000000E-01
                       5.0000000000E-01  0.0000000000E+00  5.0000000000E-01
                       7.5000000000E-01  2.5000000000E-01  5.0000000000E-01
                       7.5000000000E-01  0.0000000000E+00  7.5000000000E-01
                       5.0000000000E-01  2.5000000000E-01  7.5000000000E-01
                       5.0000000000E-01  5.0000000000E-01  0.0000000000E+00
                       7.5000000000E-01  7.5000000000E-01  0.0000000000E+00
                       7.5000000000E-01  5.0000000000E-01  2.5000000000E-01
                       5.0000000000E-01  7.5000000000E-01  2.5000000000E-01
                       5.0000000000E-01  5.0000000000E-01  5.0000000000E-01
                       7.5000000000E-01  7.5000000000E-01  5.0000000000E-01
                       7.5000000000E-01  5.0000000000E-01  7.5000000000E-01
                       5.0000000000E-01  7.5000000000E-01  7.5000000000E-01
            znucl       56.00000
 
================================================================================
 
 Test the timer : 
  a combined call timab(*,1,tsec) + timab(*,2,tsec) is 
- CPU time =    6.4562E-05 sec,    Wall time =    5.7778E-06 sec

- Total cpu        time (s,m,h):       2229.5       37.16      0.619
- Total wall clock time (s,m,h):        212.7        3.55      0.059
-
- For major independent code sections, cpu and wall times (sec),
-  as well as % of the time and number of calls for node 0-
-<BEGIN_TIMER mpi_nprocs = 1, omp_nthreads = 12, mpi_rank = 0>
- cpu_time =         2229.5, wall_time =          212.7
-
- routine                        cpu     %       wall     %      number of calls  Gflops    Speedup Efficacity
-                                                                  (-1=no count)
- nonlop(apply)               2045.499  91.7    186.481  87.7           2652      -1.00       10.97       0.91
- vtowfk(ssdiag)              1056.884  47.4     99.521  46.8             -1      -1.00       10.62       0.88
- chebfiwf2                   1052.412  47.2     99.103  46.6            102      -1.00       10.62       0.88
- fourwf%(pot)                 533.030  23.9     51.501  24.2           2448      -1.00       10.35       0.86
- getghc-other                 376.814  16.9     38.987  18.3             -1      -1.00        9.67       0.81
- pawdenpot                    319.330  14.3     29.970  14.1            100      -1.00       10.66       0.89
- fourwf%(den)                 251.937  11.3     24.698  11.6          16174      -1.00       10.20       0.85
- vtowfk(contrib)              125.276   5.6     12.059   5.7            100      -1.00       10.39       0.87
- pawmkrho                     115.614   5.2     10.923   5.1            100      -1.00       10.58       0.88
- pawmkrho:symrhoij             85.145   3.8      8.039   3.8            100      -1.00       10.59       0.88
- pawdij/symdij                 84.238   3.8      7.650   3.6            100      -1.00       11.01       0.92
- fourdp                        64.208   2.9      6.066   2.9           1004      -1.00       10.58       0.88
- xc:pot/=fourdp                32.175   1.4      3.008   1.4            101      -1.00       10.70       0.89
- vtorho:pawmkrhoij             14.963   0.7      1.455   0.7            100      -1.00       10.28       0.86
- mkrho/=                       12.619   0.6      1.050   0.5            200      -1.00       12.02       1.00
- newkpt(excl. rwwf   )         10.168   0.5      0.926   0.4             -1      -1.00       10.98       0.92
- pawinit                        3.923   0.2      0.366   0.2              2      -1.00       10.72       0.89
- symrhg(no FFT)                 3.536   0.2      0.335   0.2            100      -1.00       10.55       0.88
- pspini                         3.216   0.1      0.848   0.4              1      -1.00        3.79       0.32
- nonlop(forstr)                 2.540   0.1      0.228   0.1              1      -1.00       11.14       0.93
- ewald                          2.360   0.1      0.469   0.2              1      -1.00        5.03       0.42
- stress                         2.332   0.1      0.260   0.1              1      -1.00        8.97       0.75
- vtowfk  (1)                    2.133   0.1      0.214   0.1            100      -1.00        9.97       0.83
- ewald2 (+vdw_dftd)             2.025   0.1      0.232   0.1              1      -1.00        8.73       0.73
- nhatgrid                       1.253   0.1      0.119   0.1              2      -1.00       10.53       0.88
- forces                         1.097   0.0      0.099   0.0              1      -1.00       11.08       0.92
- scfcv-scprqt                   0.335   0.0      0.028   0.0            100      -1.00       11.98       1.00
- timing timab                   0.145   0.0      0.013   0.0              3      -1.00       11.17       0.93
- setsym                         0.119   0.0      0.010   0.0              1      -1.00       11.90       0.99
- invars2                        0.071   0.0      0.071   0.0              1      -1.00        1.00       0.08
- abinit(2)                      0.051   0.0      0.052   0.0              1      -1.00        0.99       0.08
- others (83)                    0.000   0.0      0.001   0.0             -1      -1.00        0.15       0.01
-<END_TIMER>
-
- subtotal                    6205.448 278.3    584.782 274.9                                 10.61       0.88

- For major independent code sections, cpu and wall times (sec),
- as well as % of the total time and number of calls 

-<BEGIN_TIMER mpi_nprocs = 1, omp_nthreads = 12, mpi_rank = world>
- cpu_time =        2229.5, wall_time =         212.7
-
- routine                         cpu     %       wall     %      number of calls Gflops    Speedup Efficacity
-                                                                  (-1=no count)
- nonlop(apply)               2045.499  91.7    186.481  87.7           2652      -1.00       10.97       0.91
- vtowfk(ssdiag)              1056.884  47.4     99.521  46.8             -1      -1.00       10.62       0.88
- chebfiwf2                   1052.412  47.2     99.103  46.6            102      -1.00       10.62       0.88
- fourwf%(pot)                 533.030  23.9     51.501  24.2           2448      -1.00       10.35       0.86
- getghc-other                 376.814  16.9     38.987  18.3             -1      -1.00        9.67       0.81
- pawdenpot                    319.330  14.3     29.970  14.1            100      -1.00       10.66       0.89
- fourwf%(den)                 251.937  11.3     24.698  11.6          16174      -1.00       10.20       0.85
- vtowfk(contrib)              125.276   5.6     12.059   5.7            100      -1.00       10.39       0.87
- pawmkrho                     115.614   5.2     10.923   5.1            100      -1.00       10.58       0.88
- pawmkrho:symrhoij             85.145   3.8      8.039   3.8            100      -1.00       10.59       0.88
- pawdij/symdij                 84.238   3.8      7.650   3.6            100      -1.00       11.01       0.92
- fourdp                        64.208   2.9      6.066   2.9           1004      -1.00       10.58       0.88
- xc:pot/=fourdp                32.175   1.4      3.008   1.4            101      -1.00       10.70       0.89
- vtorho:pawmkrhoij             14.963   0.7      1.455   0.7            100      -1.00       10.28       0.86
- mkrho/=                       12.619   0.6      1.050   0.5            200      -1.00       12.02       1.00
- newkpt(excl. rwwf   )         10.168   0.5      0.926   0.4             -1      -1.00       10.98       0.92
- pawinit                        3.923   0.2      0.366   0.2              2      -1.00       10.72       0.89
- symrhg(no FFT)                 3.536   0.2      0.335   0.2            100      -1.00       10.55       0.88
- pspini                         3.216   0.1      0.848   0.4              1      -1.00        3.79       0.32
- nonlop(forstr)                 2.540   0.1      0.228   0.1              1      -1.00       11.14       0.93
- ewald                          2.360   0.1      0.469   0.2              1      -1.00        5.03       0.42
- stress                         2.332   0.1      0.260   0.1              1      -1.00        8.97       0.75
- vtowfk  (1)                    2.133   0.1      0.214   0.1            100      -1.00        9.97       0.83
- ewald2 (+vdw_dftd)             2.025   0.1      0.232   0.1              1      -1.00        8.73       0.73
- nhatgrid                       1.253   0.1      0.119   0.1              2      -1.00       10.53       0.88
- forces                         1.097   0.0      0.099   0.0              1      -1.00       11.08       0.92
- scfcv-scprqt                   0.335   0.0      0.028   0.0            100      -1.00       11.98       1.00
- timing timab                   0.145   0.0      0.013   0.0              3      -1.00       11.17       0.93
- setsym                         0.119   0.0      0.010   0.0              1      -1.00       11.90       0.99
- invars2                        0.071   0.0      0.071   0.0              1      -1.00        1.00       0.08
- abinit(2)                      0.051   0.0      0.052   0.0              1      -1.00        0.99       0.08
- others (83)                    0.000   0.0      0.001   0.0             -1      -1.00        0.15       0.01
-<END_TIMER>

- subtotal                    6205.448 278.3    584.782 274.9                                 10.61       0.88

 Partitioning of abinit
- abinit                      2229.516 100.0    212.715 100.0              1                  10.48       0.87
 
- abinit(2)                      0.051   0.0      0.052   0.0              1                   0.99       0.08
- indefo+macroin+invars2m        0.071   0.0      0.071   0.0              1                   1.00       0.08
- abinit(4)                      0.140   0.0      0.141   0.1              1                   0.99       0.08
- abinit(5)                      0.225   0.0      0.055   0.0              1                   4.09       0.34
- driver                      2228.955 100.0    212.497  99.9              1                  10.49       0.87

- subtotal                    2229.516 100.0    212.715 100.0                                 10.48       0.87

 Partitioning of driver
- driver                      2228.955 100.0    212.497  99.9              1                  10.49       0.87
 
- gstateimg                   2228.954 100.0    212.495  99.9              1                  10.49       0.87

- subtotal                    2228.955 100.0    212.497  99.9                                 10.49       0.87

 Partitioning of gstateimg+gstate
- gstateimg                   2228.954 100.0    212.495  99.9              1                  10.49       0.87
 
- gstate->kpgsph                10.332   0.5      0.942   0.4              2                  10.97       0.91
- gstate(pspini)                 3.216   0.1      0.848   0.4              1                   3.79       0.32
- gstate  (2)                    2.638   0.1      0.264   0.1              1                   9.99       0.83
- gstate(...scfcv)            2212.758  99.2    210.430  98.9              1                  10.52       0.88

- subtotal                    2228.954 100.0    212.495  99.9                                 10.49       0.87

 Partitioning of scfcv_core
- scfcv_core                  2212.747  99.2    210.429  98.9              1                  10.52       0.88
 
- scfcv_core(iniloop, setv       3.081   0.1      0.547   0.3            100                   5.63       0.47
- scfcv_core(loop, PAW)        404.709  18.2     37.725  17.7            100                  10.73       0.89
- scfcv_core(vtorho(f))       1678.008  75.3    159.487  75.0            100                  10.52       0.88
- scfcv_core(mix den - new      57.243   2.6      5.654   2.7             99                  10.12       0.84
- scfcv_core(rhotov)            60.366   2.7      5.816   2.7             99                  10.38       0.86
- scfcv_core(afterscfloop)       7.938   0.4      0.773   0.4              1                  10.27       0.86
- scfcv_core(outscfcv)           0.009   0.0      0.315   0.1              1                   0.03       0.00
- (other)                        0.606   0.0      0.044   0.0             -1                  13.78       1.15

- subtotal                    2212.747  99.2    210.429  98.9                                 10.52       0.88

 Partitioning of rhotov
- rhotov                        48.383   2.2      4.617   2.2             99                  10.48       0.87
 
- rhotov(rhotoxc)               32.151   1.4      2.998   1.4             99                  10.72       0.89
- rhotov(dotprod_vn)             3.522   0.2      0.362   0.2             99                   9.73       0.81
- rhotov(other)                  6.204   0.3      0.621   0.3             99                   9.99       0.83
- (other)                        6.505   0.3      0.636   0.3             -1                  10.23       0.85

- subtotal                      48.383   2.2      4.617   2.2                                 10.48       0.87

 Partitioning of vtorho
- vtorho                      1677.966  75.3    159.486  75.0            100                  10.52       0.88
 
- vtorho(bef. spin loop)         2.132   0.1      0.181   0.1            100                  11.78       0.98
- vtorho(bef. kpt  loop)        10.567   0.5      0.988   0.5            100                  10.70       0.89
- vtorho(bef. vtowfk)           31.865   1.4      3.287   1.5            100                   9.69       0.81
- vtowfk                      1184.293  53.1    111.794  52.6            100                  10.59       0.88
- vtorho(newocc)                30.713   1.4      2.924   1.4            100                  10.50       0.88
- vtorho(mkrho 1)              277.398  12.4     26.876  12.6            100                  10.32       0.86
- vtorho(mkrho 2)              139.613   6.3     13.287   6.2            100                  10.51       0.88
- mkinvovl                       1.252   0.1      0.112   0.1              1                  11.18       0.93

- subtotal                    1677.966  75.3    159.486  75.0                                 10.52       0.88

 Partitioning of vtowfk
- vtowfk                      1184.293  53.1    111.794  52.6            100                  10.59       0.88
 
- vtowfk  (1)                    2.133   0.1      0.214   0.1            100                   9.97       0.83
- vtowfk(2)                   1056.846  47.4     99.521  46.8             -1                  10.62       0.88
- vtowfk(3)                    125.276   5.6     12.059   5.7             -1                  10.39       0.87

- subtotal                    1184.293  53.1    111.794  52.6                                 10.59       0.88

 Partitioning of getghc
- getghc                      2838.956 127.3    266.219 125.2           2448                  10.66       0.89
 
- fourwf%getghc                533.030  23.9     51.501  24.2           2448                  10.35       0.86
- nonlop%getghc               1929.112  86.5    175.731  82.6           2448                  10.98       0.91
- getghc-other                 376.814  16.9     38.987  18.3             -1                   9.67       0.81

- subtotal                    2838.956 127.3    266.219 125.2                                 10.66       0.89

 Partitioning of fourwf (upwards partitioning)
- fourwf                       784.967  35.2     76.199  35.8          18622                  10.30       0.86
 
- fourwf%getghc                533.030  23.9     51.501  24.2           2448                  10.35       0.86
- fourwf%mkrho                 251.937  11.3     24.698  11.6          16174                  10.20       0.85

- subtotal                     784.967  35.2     76.199  35.8                                 10.30       0.86

 Partitioning of mkrho (upwards partitioning)
- mkrho                        277.397  12.4     26.875  12.6            100                  10.32       0.86
 
- mkrho%vtorho                 277.397  12.4     26.875  12.6            100                  10.32       0.86

- subtotal                     277.397  12.4     26.875  12.6                                 10.32       0.86

 Partitioning of inwffil
- inwffil                       10.168   0.5      0.927   0.4              1                  10.97       0.91
 
- inwffil(call newkpt)          10.168   0.5      0.926   0.4              1                  10.98       0.92

- subtotal                      10.168   0.5      0.927   0.4                                 10.97       0.91

 Partitioning of newkpt
- newkpt                        10.168   0.5      0.926   0.4              1                  10.98       0.92
 
- newkpt(call wfconv)           10.168   0.5      0.926   0.4              1                  10.98       0.92

- subtotal                      10.168   0.5      0.926   0.4                                 10.98       0.92

 Partitioning of newrho
- newrho                        57.240   2.6      5.652   2.7             99                  10.13       0.84
 
- fourdp%newrho                  8.437   0.4      0.764   0.4             99                  11.04       0.92

- subtotal                       8.437   0.4      0.764   0.4                                 11.04       0.92

 Partitioning of  fourdp (upwards partitioning)
- fourdp                        64.208   2.9      6.066   2.9           1004                  10.58       0.88
 
- fourdp%(other)                55.770   2.5      5.302   2.5            905                  10.52       0.88
- fourdp%newrho                  8.437   0.4      0.764   0.4             99                  11.04       0.92

- subtotal                      64.208   2.9      6.066   2.9                                 10.58       0.88

 Partitioning of afterscfloop
- afterscfloop                   7.938   0.4      0.773   0.4              1                  10.27       0.86
 
- afterscfloop(forstr)           7.937   0.4      0.772   0.4              1                  10.28       0.86

- subtotal                       7.938   0.4      0.773   0.4                                 10.27       0.86

 Partitioning of forstr
- forstr                         6.906   0.3      0.674   0.3              1                  10.25       0.85
 
- forstr(forstrnps)              3.131   0.1      0.282   0.1              1                  11.10       0.93
- forstr(forces)                 1.301   0.1      0.118   0.1              1                  11.03       0.92
- forstr(stress)                 2.332   0.1      0.260   0.1              1                   8.97       0.75

- subtotal                       6.906   0.3      0.674   0.3                                 10.25       0.85

 Partitioning of forstrnps
- forstrnps                      3.131   0.1      0.282   0.1              1                  11.10       0.93
 
- forstrnps(bef.loop band)       0.467   0.0      0.048   0.0              1                   9.72       0.81
- forstrnps(nonlop+prep_ba       2.540   0.1      0.228   0.1              1                  11.14       0.93

- subtotal                       3.131   0.1      0.282   0.1                                 11.10       0.93

 Partitioning of outscfcv
- outscfcv                       0.008   0.0      0.315   0.1              1                   0.03       0.00
 

- subtotal                       0.003   0.0      0.004   0.0                                  0.85       0.07

 Partitioning of mkinvovl
- mkinvovl                       1.252   0.1      0.112   0.1              1                  11.18       0.93
 
- mkinvovl(build_ptp)            0.916   0.0      0.084   0.0              1                  10.91       0.91

- subtotal                       1.252   0.1      0.112   0.1                                 11.17       0.93

 Additional information
- timana(1)                      0.042   0.0      0.004   0.0              1                  10.62       0.89
- total timab                    3.501   0.2      0.313   0.1          54220                  11.17       0.93
- fourwf                       784.967  35.2     76.199  35.8          18622                  10.30       0.86
- newocc                        30.712   1.4      2.923   1.4            100                  10.51       0.88
- nonlop(forstr)                 2.540   0.1      0.228   0.1              1                  11.14       0.93
- nonlop(total)               2117.906  95.0    193.277  90.9           2753                  10.96       0.91

 Additional information about PAW segments
- forces:pawatm2ff               0.264   0.0      0.024   0.0              1                  10.99       0.92
- stress:pawatm2ff               0.265   0.0      0.027   0.0              1                   9.82       0.82
- setvtr:pawatm2ff               0.150   0.0      0.028   0.0              1                   5.36       0.45
- pawinit                        3.923   0.2      0.366   0.2              2                  10.72       0.89
- vtowfk:rhoij                  69.873   3.1      6.572   3.1            100                  10.63       0.89
- vtorho:pawmkrhoij             14.963   0.7      1.455   0.7            100                  10.28       0.86
- pawmkrho                     115.614   5.2     10.923   5.1            100                  10.58       0.88
- scfcv_core:mknhat             12.033   0.5      1.204   0.6            100                   9.99       0.83
- nhatgrid                       1.253   0.1      0.119   0.1              2                  10.53       0.88
- pawdenpot                    319.330  14.3     29.970  14.1            100                  10.66       0.89
- pawdij/symdij                 84.238   3.8      7.650   3.6            100                  11.01       0.92


 Detailed analysis of some time consuming routines 
                                  tcpu    ncalls  tcpu/ncalls    ndata tcpu/ncalls/ndata
                                 (sec)                (msec)              (microsec)
- fourwf%(pot)                 533.030      2448     217.741    128000       1.701
- fourwf%(den)                 251.937     16174      15.577     64000       0.243
- fourdp                        64.208      1004      63.952     64000       0.999
- nonlop(apply)               2045.499      2652     771.304    120497       6.401
- nonlop(forces)                 0.000         0
- nonlop(forstr)                 2.540         1    2539.551    120497      21.076
- projbd                         0.000         0
- xc:pot/=fourdp                32.175       101     318.566     64000       4.978

================================================================================

 Suggested references for the acknowledgment of ABINIT usage.

 The users of ABINIT have little formal obligations with respect to the ABINIT group
 (those specified in the GNU General Public License, http://www.gnu.org/copyleft/gpl.txt).
 However, it is common practice in the scientific literature,
 to acknowledge the efforts of people that have made the research possible.
 In this spirit, please find below suggested citations of work written by ABINIT developers,
 corresponding to implementations inside of ABINIT that you have used in the present run.
 Note also that it will be of great value to readers of publications presenting these results,
 to read papers enabling them to understand the theoretical formalism and details
 of the ABINIT implementation.
 For information on why they are suggested, see also https://docs.abinit.org/theory/acknowledgments.
-
- [1] Implementation of the Projector Augmented-Wave Method in the ABINIT code.
- M. Torrent, F. Jollet, F. Bottin, G. Zerah, and X. Gonze Comput. Mat. Science 42, 337, (2008).
- Comment : PAW calculations. Strong suggestion to cite this paper.
- DOI and bibtex : see https://docs.abinit.org/theory/bibliography/#torrent2008
-
- [2] Recent developments in the ABINIT software package.
- Computer Phys. Comm. 205, 106 (2016).
- X.Gonze, F.Jollet, F.Abreu Araujo, D.Adams, B.Amadon, T.Applencourt,
- C.Audouze, J.-M.Beuken, J.Bieder, A.Bokhanchuk, E.Bousquet, F.Bruneval
- D.Caliste, M.Cote, F.Dahm, F.Da Pieve, M.Delaveau, M.Di Gennaro,
- B.Dorado, C.Espejo, G.Geneste, L.Genovese, A.Gerossier, M.Giantomassi,
- Y.Gillet, D.R.Hamann, L.He, G.Jomard, J.Laflamme Janssen, S.Le Roux,
- A.Levitt, A.Lherbier, F.Liu, I.Lukacevic, A.Martin, C.Martins,
- M.J.T.Oliveira, S.Ponce, Y.Pouillon, T.Rangel, G.-M.Rignanese,
- A.H.Romero, B.Rousseau, O.Rubel, A.A.Shukri, M.Stankovski, M.Torrent,
- M.J.Van Setten, B.Van Troeye, M.J.Verstraete, D.Waroquier, J.Wiktor,
- B.Xu, A.Zhou, J.W.Zwanziger.
- Comment : the fourth generic paper describing the ABINIT project.
- Note that a version of this paper, that is not formatted for Computer Phys. Comm. 
- is available at https://www.abinit.org/about/ABINIT16.pdf .
- The licence allows the authors to put it on the Web.
- DOI and bibtex : see https://docs.abinit.org/theory/bibliography/#gonze2016
-
- [3] ABINIT : First-principles approach of materials and nanosystem properties.
- Computer Phys. Comm. 180, 2582-2615 (2009).
- X. Gonze, B. Amadon, P.-M. Anglade, J.-M. Beuken, F. Bottin, P. Boulanger, F. Bruneval,
- D. Caliste, R. Caracas, M. Cote, T. Deutsch, L. Genovese, Ph. Ghosez, M. Giantomassi
- S. Goedecker, D.R. Hamann, P. Hermet, F. Jollet, G. Jomard, S. Leroux, M. Mancini, S. Mazevet,
- M.J.T. Oliveira, G. Onida, Y. Pouillon, T. Rangel, G.-M. Rignanese, D. Sangalli, R. Shaltaf,
- M. Torrent, M.J. Verstraete, G. Zerah, J.W. Zwanziger
- Comment : the third generic paper describing the ABINIT project.
- Note that a version of this paper, that is not formatted for Computer Phys. Comm. 
- is available at https://www.abinit.org/about/ABINIT_CPC_v10.pdf .
- The licence allows the authors to put it on the Web.
- DOI and bibtex : see https://docs.abinit.org/theory/bibliography/#gonze2009
-
- [4] A brief introduction to the ABINIT software package.
- Z. Kristallogr. 220, 558-562 (2005).
- X. Gonze, G.-M. Rignanese, M. Verstraete, J.-M. Beuken, Y. Pouillon, R. Caracas, F. Jollet,
- M. Torrent, G. Zerah, M. Mikami, Ph. Ghosez, M. Veithen, J.-Y. Raty, V. Olevano, F. Bruneval,
- L. Reining, R. Godby, G. Onida, D.R. Hamann, and D.C. Allan.
- Comment : the second generic paper describing the ABINIT project. Note that this paper
- should be cited especially if you are using the GW part of ABINIT, as several authors
- of this part are not in the list of authors of the first or third paper.
- The .pdf of the latter paper is available at https://www.abinit.org/about/zfk_0505-06_558-562.pdf.
- Note that it should not redistributed (Copyright by Oldenburg Wissenshaftverlag,
- the licence allows the authors to put it on the Web).
- DOI and bibtex : see https://docs.abinit.org/theory/bibliography/#gonze2005
-
- And optionally:
-
- [5] First-principles computation of material properties : the ABINIT software project. 
- X. Gonze, J.-M. Beuken, R. Caracas, F. Detraux, M. Fuchs, G.-M. Rignanese, L. Sindic,
- M. Verstraete, G. Zerah, F. Jollet, M. Torrent, A. Roy, M. Mikami, Ph. Ghosez, J.-Y. Raty, D.C. Allan.
- Computational Materials Science 25, 478-492 (2002). http://dx.doi.org/10.1016/S0927-0256(02)00325-7
- Comment : the original paper describing the ABINIT project.
- DOI and bibtex : see https://docs.abinit.org/theory/bibliography/#gonze2002
-
- Proc.   0 individual time (sec): cpu=       2229.6  wall=        212.7
 
================================================================================
 
 Calculation completed.
.Delivered  55 WARNINGs and   3 COMMENTs to log file.
+Overall time at end (sec) : cpu=       2229.6  wall=        212.7
