
.Version 8.11.7 of ABINIT 
.(MPI version, prepared for a x86_64_linux_intel19.0 computer) 

.Copyright (C) 1998-2019 ABINIT group . 
 ABINIT comes with ABSOLUTELY NO WARRANTY.
 It is free software, and you are welcome to redistribute it
 under certain conditions (GNU General Public License,
 see ~abinit/COPYING or http://www.gnu.org/copyleft/gpl.txt).

 ABINIT is a project of the Universite Catholique de Louvain,
 Corning Inc. and other collaborators, see ~abinit/doc/developers/contributors.txt .
 Please read https://docs.abinit.org/theory/acknowledgments for suggested
 acknowledgments of the ABINIT effort.
 For more information, see https://www.abinit.org .

.Starting date : Mon  3 Jun 2019.
- ( at 11h13 )
  
- input  file    -> t03.in
- output file    -> t03_x.out
- root for input  files -> t03_xi
- root for output files -> t03_xo
 
- inpspheads : Reading pseudopotential header in XML form from ../../../Psps_for_tests/ba.hpc.paw.xml
 
 Symmetries : space group Pm -3 m (#221); Bravais cP (primitive cubic)
================================================================================
 Values of the parameters that define the memory need of the present run
     intxc =       0    ionmov =       0      iscf =      17    lmnmax =      18
     lnmax =       6     mgfft =      40  mpssoang =       3    mqgrid =    3001
     natom =      31  nloc_mem =       2    nspden =       1   nspinor =       1
    nsppol =       1      nsym =      48    n1xccc =       1    ntypat =       1
    occopt =       3   xclevel =       1
-    mband =         192        mffmem =           1         mkmem =           1
       mpw =        1944          nfft =       64000          nkpt =           1
Pmy_natom=        16
 PAW method is used; the additional fine FFT grid is defined by:
   mgfftf=        45    nfftf =     91125
================================================================================
P This job should need less than                      55.887 Mbytes of memory.
  Rough estimation (10% accuracy) of disk space for files :
_ WF disk file :      5.697 Mbytes ; DEN or POT disk file :      0.697 Mbytes.
================================================================================
 
--------------------------------------------------------------------------------
------------- Echo of variables that govern the present computation ------------
--------------------------------------------------------------------------------
-
- outvars: echo of selected default values                                      
-   iomode0 =  0 , fftalg0 =312 , wfoptalg0 = 10
-
- outvars: echo of global parameters not present in the input file              
-  max_nthreads =    6
-
 -outvars: echo values of preprocessed input variables --------
-          iomode           1
            acell      1.5340000000E+01  1.5340000000E+01  1.5340000000E+01 Bohr
              amu      1.37327000E+02
           bandpp          96
      chksymbreak           0
     densfor_pred           6
             ecut      8.00000000E+00 Hartree
-          fftalg         312
           istwfk        1
              ixc           7
           kptopt           0
P           mkmem           1
            natom          31
            nband         192
            ngfft          40      40      40
          ngfftdg          45      45      45
             nkpt           1
-          npband           2
            nstep          40
             nsym          48
           ntypat           1
              occ      2.000000  2.000000  2.000000  2.000000  2.000000  2.000000
                       2.000000  2.000000  2.000000  2.000000  2.000000  2.000000
                       2.000000  2.000000  2.000000  2.000000  2.000000  2.000000
                       2.000000  2.000000  2.000000  2.000000  2.000000  2.000000
                       2.000000  2.000000  2.000000  2.000000  2.000000  2.000000
                       2.000000  2.000000  2.000000  2.000000  2.000000  2.000000
                       2.000000  2.000000  2.000000  2.000000  2.000000  2.000000
                       2.000000  2.000000  2.000000  2.000000  2.000000  2.000000
                       2.000000  2.000000  2.000000  2.000000  2.000000  2.000000
                       2.000000  2.000000  2.000000  2.000000  2.000000  2.000000
                       2.000000  2.000000  2.000000  2.000000  2.000000  2.000000
                       2.000000  2.000000  2.000000  2.000000  2.000000  2.000000
                       2.000000  2.000000  2.000000  2.000000  2.000000  2.000000
                       2.000000  2.000000  2.000000  2.000000  2.000000  2.000000
                       2.000000  2.000000  2.000000  2.000000  2.000000  2.000000
                       2.000000  2.000000  2.000000  2.000000  2.000000  2.000000
                       2.000000  2.000000  2.000000  2.000000  2.000000  2.000000
                       2.000000  2.000000  2.000000  2.000000  2.000000  2.000000
                       2.000000  2.000000  2.000000  2.000000  2.000000  2.000000
                       2.000000  2.000000  2.000000  2.000000  2.000000  2.000000
                       2.000000  2.000000  2.000000  2.000000  2.000000  2.000000
                       2.000000  2.000000  2.000000  2.000000  2.000000  2.000000
                       2.000000  2.000000  2.000000  2.000000  2.000000  2.000000
                       2.000000  2.000000  2.000000  2.000000  2.000000  2.000000
                       2.000000  2.000000  2.000000  2.000000  2.000000  2.000000
                       2.000000  2.000000  2.000000  2.000000  2.000000  0.000000
                       0.000000  0.000000  0.000000  0.000000  0.000000  0.000000
                       0.000000  0.000000  0.000000  0.000000  0.000000  0.000000
                       0.000000  0.000000  0.000000  0.000000  0.000000  0.000000
                       0.000000  0.000000  0.000000  0.000000  0.000000  0.000000
                       0.000000  0.000000  0.000000  0.000000  0.000000  0.000000
                       0.000000  0.000000  0.000000  0.000000  0.000000  0.000000
           occopt           3
        paral_kgb           1
        pawecutdg      1.00000000E+01 Hartree
           prtden           0
           prteig           0
            prtwf           0
          spgroup         221
           symrel      1  0  0   0  1  0   0  0  1      -1  0  0   0 -1  0   0  0 -1
                      -1  0  0   0  1  0   0  0 -1       1  0  0   0 -1  0   0  0  1
                      -1  0  0   0 -1  0   0  0  1       1  0  0   0  1  0   0  0 -1
                       1  0  0   0 -1  0   0  0 -1      -1  0  0   0  1  0   0  0  1
                       0  1  0   1  0  0   0  0  1       0 -1  0  -1  0  0   0  0 -1
                       0 -1  0   1  0  0   0  0 -1       0  1  0  -1  0  0   0  0  1
                       0 -1  0  -1  0  0   0  0  1       0  1  0   1  0  0   0  0 -1
                       0  1  0  -1  0  0   0  0 -1       0 -1  0   1  0  0   0  0  1
                       0  0  1   1  0  0   0  1  0       0  0 -1  -1  0  0   0 -1  0
                       0  0 -1   1  0  0   0 -1  0       0  0  1  -1  0  0   0  1  0
                       0  0 -1  -1  0  0   0  1  0       0  0  1   1  0  0   0 -1  0
                       0  0  1  -1  0  0   0 -1  0       0  0 -1   1  0  0   0  1  0
                       1  0  0   0  0  1   0  1  0      -1  0  0   0  0 -1   0 -1  0
                      -1  0  0   0  0  1   0 -1  0       1  0  0   0  0 -1   0  1  0
                      -1  0  0   0  0 -1   0  1  0       1  0  0   0  0  1   0 -1  0
                       1  0  0   0  0 -1   0 -1  0      -1  0  0   0  0  1   0  1  0
                       0  1  0   0  0  1   1  0  0       0 -1  0   0  0 -1  -1  0  0
                       0 -1  0   0  0  1  -1  0  0       0  1  0   0  0 -1   1  0  0
                       0 -1  0   0  0 -1   1  0  0       0  1  0   0  0  1  -1  0  0
                       0  1  0   0  0 -1  -1  0  0       0 -1  0   0  0  1   1  0  0
                       0  0  1   0  1  0   1  0  0       0  0 -1   0 -1  0  -1  0  0
                       0  0 -1   0  1  0  -1  0  0       0  0  1   0 -1  0   1  0  0
                       0  0 -1   0 -1  0   1  0  0       0  0  1   0  1  0  -1  0  0
                       0  0  1   0 -1  0  -1  0  0       0  0 -1   0  1  0   1  0  0
           timopt          -3
           toldfe      1.00000000E-05 Hartree
           tsmear      2.00000000E-03 Hartree
            typat      1  1  1  1  1  1  1  1  1  1  1  1  1  1  1  1  1  1  1  1
                       1  1  1  1  1  1  1  1  1  1  1
           useylm           1
         wfoptalg         111
           xangst      2.0293945949E+00  2.0293945949E+00  0.0000000000E+00
                       2.0293945949E+00  0.0000000000E+00  2.0293945949E+00
                       0.0000000000E+00  2.0293945949E+00  2.0293945949E+00
                       0.0000000000E+00  0.0000000000E+00  4.0587891899E+00
                       2.0293945949E+00  2.0293945949E+00  4.0587891899E+00
                       2.0293945949E+00  0.0000000000E+00  6.0881837848E+00
                       0.0000000000E+00  2.0293945949E+00  6.0881837848E+00
                       0.0000000000E+00  4.0587891899E+00  0.0000000000E+00
                       2.0293945949E+00  6.0881837848E+00  0.0000000000E+00
                       2.0293945949E+00  4.0587891899E+00  2.0293945949E+00
                       0.0000000000E+00  6.0881837848E+00  2.0293945949E+00
                       0.0000000000E+00  4.0587891899E+00  4.0587891899E+00
                       2.0293945949E+00  6.0881837848E+00  4.0587891899E+00
                       2.0293945949E+00  4.0587891899E+00  6.0881837848E+00
                       0.0000000000E+00  6.0881837848E+00  6.0881837848E+00
                       4.0587891899E+00  0.0000000000E+00  0.0000000000E+00
                       6.0881837848E+00  2.0293945949E+00  0.0000000000E+00
                       6.0881837848E+00  0.0000000000E+00  2.0293945949E+00
                       4.0587891899E+00  2.0293945949E+00  2.0293945949E+00
                       4.0587891899E+00  0.0000000000E+00  4.0587891899E+00
                       6.0881837848E+00  2.0293945949E+00  4.0587891899E+00
                       6.0881837848E+00  0.0000000000E+00  6.0881837848E+00
                       4.0587891899E+00  2.0293945949E+00  6.0881837848E+00
                       4.0587891899E+00  4.0587891899E+00  0.0000000000E+00
                       6.0881837848E+00  6.0881837848E+00  0.0000000000E+00
                       6.0881837848E+00  4.0587891899E+00  2.0293945949E+00
                       4.0587891899E+00  6.0881837848E+00  2.0293945949E+00
                       4.0587891899E+00  4.0587891899E+00  4.0587891899E+00
                       6.0881837848E+00  6.0881837848E+00  4.0587891899E+00
                       6.0881837848E+00  4.0587891899E+00  6.0881837848E+00
                       4.0587891899E+00  6.0881837848E+00  6.0881837848E+00
            xcart      3.8350000000E+00  3.8350000000E+00  0.0000000000E+00
                       3.8350000000E+00  0.0000000000E+00  3.8350000000E+00
                       0.0000000000E+00  3.8350000000E+00  3.8350000000E+00
                       0.0000000000E+00  0.0000000000E+00  7.6700000000E+00
                       3.8350000000E+00  3.8350000000E+00  7.6700000000E+00
                       3.8350000000E+00  0.0000000000E+00  1.1505000000E+01
                       0.0000000000E+00  3.8350000000E+00  1.1505000000E+01
                       0.0000000000E+00  7.6700000000E+00  0.0000000000E+00
                       3.8350000000E+00  1.1505000000E+01  0.0000000000E+00
                       3.8350000000E+00  7.6700000000E+00  3.8350000000E+00
                       0.0000000000E+00  1.1505000000E+01  3.8350000000E+00
                       0.0000000000E+00  7.6700000000E+00  7.6700000000E+00
                       3.8350000000E+00  1.1505000000E+01  7.6700000000E+00
                       3.8350000000E+00  7.6700000000E+00  1.1505000000E+01
                       0.0000000000E+00  1.1505000000E+01  1.1505000000E+01
                       7.6700000000E+00  0.0000000000E+00  0.0000000000E+00
                       1.1505000000E+01  3.8350000000E+00  0.0000000000E+00
                       1.1505000000E+01  0.0000000000E+00  3.8350000000E+00
                       7.6700000000E+00  3.8350000000E+00  3.8350000000E+00
                       7.6700000000E+00  0.0000000000E+00  7.6700000000E+00
                       1.1505000000E+01  3.8350000000E+00  7.6700000000E+00
                       1.1505000000E+01  0.0000000000E+00  1.1505000000E+01
                       7.6700000000E+00  3.8350000000E+00  1.1505000000E+01
                       7.6700000000E+00  7.6700000000E+00  0.0000000000E+00
                       1.1505000000E+01  1.1505000000E+01  0.0000000000E+00
                       1.1505000000E+01  7.6700000000E+00  3.8350000000E+00
                       7.6700000000E+00  1.1505000000E+01  3.8350000000E+00
                       7.6700000000E+00  7.6700000000E+00  7.6700000000E+00
                       1.1505000000E+01  1.1505000000E+01  7.6700000000E+00
                       1.1505000000E+01  7.6700000000E+00  1.1505000000E+01
                       7.6700000000E+00  1.1505000000E+01  1.1505000000E+01
             xred      2.5000000000E-01  2.5000000000E-01  0.0000000000E+00
                       2.5000000000E-01  0.0000000000E+00  2.5000000000E-01
                       0.0000000000E+00  2.5000000000E-01  2.5000000000E-01
                       0.0000000000E+00  0.0000000000E+00  5.0000000000E-01
                       2.5000000000E-01  2.5000000000E-01  5.0000000000E-01
                       2.5000000000E-01  0.0000000000E+00  7.5000000000E-01
                       0.0000000000E+00  2.5000000000E-01  7.5000000000E-01
                       0.0000000000E+00  5.0000000000E-01  0.0000000000E+00
                       2.5000000000E-01  7.5000000000E-01  0.0000000000E+00
                       2.5000000000E-01  5.0000000000E-01  2.5000000000E-01
                       0.0000000000E+00  7.5000000000E-01  2.5000000000E-01
                       0.0000000000E+00  5.0000000000E-01  5.0000000000E-01
                       2.5000000000E-01  7.5000000000E-01  5.0000000000E-01
                       2.5000000000E-01  5.0000000000E-01  7.5000000000E-01
                       0.0000000000E+00  7.5000000000E-01  7.5000000000E-01
                       5.0000000000E-01  0.0000000000E+00  0.0000000000E+00
                       7.5000000000E-01  2.5000000000E-01  0.0000000000E+00
                       7.5000000000E-01  0.0000000000E+00  2.5000000000E-01
                       5.0000000000E-01  2.5000000000E-01  2.5000000000E-01
                       5.0000000000E-01  0.0000000000E+00  5.0000000000E-01
                       7.5000000000E-01  2.5000000000E-01  5.0000000000E-01
                       7.5000000000E-01  0.0000000000E+00  7.5000000000E-01
                       5.0000000000E-01  2.5000000000E-01  7.5000000000E-01
                       5.0000000000E-01  5.0000000000E-01  0.0000000000E+00
                       7.5000000000E-01  7.5000000000E-01  0.0000000000E+00
                       7.5000000000E-01  5.0000000000E-01  2.5000000000E-01
                       5.0000000000E-01  7.5000000000E-01  2.5000000000E-01
                       5.0000000000E-01  5.0000000000E-01  5.0000000000E-01
                       7.5000000000E-01  7.5000000000E-01  5.0000000000E-01
                       7.5000000000E-01  5.0000000000E-01  7.5000000000E-01
                       5.0000000000E-01  7.5000000000E-01  7.5000000000E-01
            znucl       56.00000
 
================================================================================
 
 chkinp: Checking input parameters for consistency.
 
================================================================================
== DATASET  1 ==================================================================
-   nproc =    2
 
--- !IterStart
dtset:     1
...
 
 Exchange-correlation functional for the present dataset will be:
  LDA: Perdew-Wang 92 LSD fit to Ceperley-Alder data - ixc=7
 Citation for XC functional:
  J.P.Perdew and Y.Wang, PRB 45, 13244 (1992)
 
 Real(R)+Recip(G) space primitive vectors, cartesian coordinates (Bohr,Bohr^-1):
 R(1)= 15.3400000  0.0000000  0.0000000  G(1)=  0.0651890  0.0000000  0.0000000
 R(2)=  0.0000000 15.3400000  0.0000000  G(2)=  0.0000000  0.0651890  0.0000000
 R(3)=  0.0000000  0.0000000 15.3400000  G(3)=  0.0000000  0.0000000  0.0651890
 Unit cell volume ucvol=  3.6097413E+03 bohr^3
 Angles (23,13,12)=  9.00000000E+01  9.00000000E+01  9.00000000E+01 degrees
 
 Coarse grid specifications (used for wave-functions):
 
 getcut: wavevector=  0.0000  0.0000  0.0000  ngfft=  40  40  40
         ecut(hartree)=      8.000   => boxcut(ratio)=   2.04797
 
 Fine grid specifications (used for densities):
 
 getcut: wavevector=  0.0000  0.0000  0.0000  ngfft=  45  45  45
         ecut(hartree)=     10.000   => boxcut(ratio)=   2.01494
 
--- Pseudopotential description ------------------------------------------------
- pspini: atom type   1  psp file is ../../../Psps_for_tests/ba.hpc.paw.xml
- pspatm: opening atomic psp file    ../../../Psps_for_tests/ba.hpc.paw.xml
- pspatm : Reading pseudopotential header in XML form from ../../../Psps_for_tests/ba.hpc.paw.xml
 Pseudopotential format is: paw10
 basis_size (lnmax)=  6 (lmn_size= 18), orbitals=   0   0   1   1   2   2
 Spheres core radius: rc_sph= 2.31518568
 1 radial meshes are used:
  - mesh 1: r(i)=AA*[exp(BB*(i-1))-1], size=1500 , AA= 0.15658E-03 BB= 0.87685E-02
 Shapefunction is SIN type: shapef(r)=[sin(pi*r/rshp)/(pi*r/rshp)]**2
 Radius for shape functions =  2.01210979
 mmax= 1500
 Radial grid used for partial waves is grid 1
 Radial grid used for projectors is grid 1
 Radial grid used for (t)core density is grid 1
 Radial grid used for Vloc is grid 1
 Radial grid used for pseudo valence density is grid 1
 Mesh size for Vloc has been set to 1341 to avoid numerical noise.
 Compensation charge density is not taken into account in XC energy/potential
 pspatm: atomic psp has been read  and splines computed
 
   5.70955898E+05                                ecore*ucvol(ha*bohr**3)
--------------------------------------------------------------------------------
 
_setup2: Arith. and geom. avg. npw (full set) are    1944.000    1944.000
 
================================================================================
 
     iter   Etot(hartree)      deltaE(h)  residm     nres2
 ETOT  1  -789.20440148278    -7.892E+02 5.387E+00 2.440E+02
 ETOT  2  -801.01050432160    -1.181E+01 5.424E+00 3.626E+01
 ETOT  3  -809.04719697782    -8.037E+00 3.264E+00 1.179E+00
 ETOT  4  -807.19809023026     1.849E+00 5.823E+00 2.644E-01
 ETOT  5  -807.39175470617    -1.937E-01 3.946E+00 4.684E-02
 ETOT  6  -806.66247354602     7.293E-01 5.604E+00 7.900E-02
 ETOT  7  -807.10728852009    -4.448E-01 4.202E+00 9.806E-03
 ETOT  8  -806.49991784846     6.074E-01 5.336E+00 4.032E-02
 ETOT  9  -806.81964934613    -3.197E-01 4.322E+00 1.091E-02
 ETOT 10  -806.30093139722     5.187E-01 5.152E+00 4.554E-02
 ETOT 11  -806.56779209836    -2.669E-01 4.413E+00 4.442E-02
 ETOT 12  -805.93284450516     6.349E-01 5.047E+00 2.376E-02
 ETOT 13  -806.10265585735    -1.698E-01 4.508E+00 2.115E-02
 ETOT 14  -805.78755081464     3.151E-01 4.949E+00 8.131E-02
 ETOT 15  -805.79298286642    -5.432E-03 4.606E+00 4.884E-02
 ETOT 16  -805.48597550773     3.070E-01 4.903E+00 6.751E-02
 ETOT 17  -805.56338525739    -7.741E-02 4.661E+00 8.684E-02
 ETOT 18  -805.34470963825     2.187E-01 4.867E+00 1.089E-01
 ETOT 19  -805.38079717126    -3.609E-02 4.698E+00 1.131E-01
 ETOT 20  -805.21076886724     1.700E-01 4.843E+00 1.086E-01
 ETOT 21  -805.20773433917     3.035E-03 4.733E+00 8.284E-02
 ETOT 22  -805.16295674061     4.478E-02 4.823E+00 1.248E-01
 ETOT 23  -805.26808490002    -1.051E-01 4.750E+00 1.913E-01
 ETOT 24  -805.13157680148     1.365E-01 4.837E+00 1.918E-01
 ETOT 25  -805.04222868303     8.935E-02 4.778E+00 1.040E-01
 ETOT 26  -804.86644076422     1.758E-01 4.824E+00 6.885E-02
 ETOT 27  -804.79300152209     7.344E-02 4.794E+00 7.316E-02
 ETOT 28  -804.72280500275     7.020E-02 4.826E+00 7.852E-02
 ETOT 29  -804.72092839122     1.877E-03 4.800E+00 5.712E-02
 ETOT 30  -804.61171441606     1.092E-01 4.848E+00 5.889E-03
 ETOT 31  -804.61707096362    -5.357E-03 4.836E+00 3.699E-03
 ETOT 32  -804.60337419708     1.370E-02 4.866E+00 7.028E-04
 ETOT 33  -804.59782148985     5.553E-03 4.864E+00 8.649E-04
 ETOT 34  -804.58171864034     1.610E-02 4.890E+00 1.578E-03
 ETOT 35  -804.59555863109    -1.384E-02 4.890E+00 5.202E-03
 ETOT 36  -804.57309722983     2.246E-02 4.922E+00 2.863E-03
 ETOT 37  -804.57703035962    -3.933E-03 4.929E+00 3.243E-03
 ETOT 38  -804.56968533522     7.345E-03 4.955E+00 3.364E-03
 ETOT 39  -804.58848695440    -1.880E-02 4.953E+00 1.051E-02
 ETOT 40  -804.57983804307     8.649E-03 4.980E+00 9.654E-03
 
 Cartesian components of stress tensor (hartree/bohr^3)
  sigma(1 1)=  1.36333467E-02  sigma(3 2)=  0.00000000E+00
  sigma(2 2)=  1.36333467E-02  sigma(3 1)=  0.00000000E+00
  sigma(3 3)=  1.36333467E-02  sigma(2 1)=  0.00000000E+00
 
 
 scprqt:  WARNING -
  nstep=   40 was not enough SCF cycles to converge;
  maximum energy difference=  8.649E-03 exceeds toldfe=  1.000E-05
 
 Integrated electronic density in atomic spheres:
 ------------------------------------------------
 Atom  Sphere_radius  Integrated_density
    1        2.31519          5.43229681
    2        2.31519          5.43229681
    3        2.31519          5.43229681
    4        2.31519          5.37841064
    5        2.31519          5.53476360
    6        2.31519          5.43229681
    7        2.31519          5.43229681
    8        2.31519          5.37841064
    9        2.31519          5.43229681
   10        2.31519          5.53476360
   11        2.31519          5.43229681
   12        2.31519          5.49161528
   13        2.31519          5.53476360
   14        2.31519          5.53476360
   15        2.31519          5.43229681
   16        2.31519          5.37841064
   17        2.31519          5.43229681
   18        2.31519          5.43229681
   19        2.31519          5.53476360
   20        2.31519          5.49161528
   21        2.31519          5.53476360
   22        2.31519          5.43229681
   23        2.31519          5.53476360
   24        2.31519          5.49161528
   25        2.31519          5.43229681
   26        2.31519          5.53476360
   27        2.31519          5.53476360
   28        2.31519          5.52100188
   29        2.31519          5.53476360
   30        2.31519          5.53476360
   31        2.31519          5.53476360
 
 PAW TEST:
 ==== Compensation charge inside spheres ============
 The following values must be close to each other ...
 Compensation charge over spherical meshes =    -23.454019801645387
 Compensation charge over fine fft grid    =    -23.450713807961080
 
 ==== Results concerning PAW augmentation regions ====
 
 Total pseudopotential strength Dij (hartree):
 Atom #  1
   0.53053   0.07817   0.00137   0.00000   0.00137   0.00001   0.00000   0.00001  -0.00018   0.00000   0.00011   0.00000 ...
   0.07817   0.01112   0.00027   0.00000   0.00027   0.00013   0.00000   0.00013  -0.00005   0.00000   0.00003   0.00000 ...
   0.00137   0.00027  -0.16155   0.00000  -0.00020  -0.02727   0.00000  -0.00009   0.00038   0.00000  -0.00022   0.00000 ...
   0.00000   0.00000   0.00000  -0.16132   0.00000   0.00000  -0.02713   0.00000   0.00000   0.00025   0.00000   0.00025 ...
   0.00137   0.00027  -0.00020   0.00000  -0.16155  -0.00009   0.00000  -0.02727   0.00038   0.00000  -0.00022   0.00000 ...
   0.00001   0.00013  -0.02727   0.00000  -0.00009  -1.12465   0.00000  -0.00031   0.00025   0.00000  -0.00015   0.00000 ...
   0.00000   0.00000   0.00000  -0.02713   0.00000   0.00000  -1.12426   0.00000   0.00000   0.00012   0.00000   0.00012 ...
   0.00001   0.00013  -0.00009   0.00000  -0.02727  -0.00031   0.00000  -1.12465   0.00025   0.00000  -0.00015   0.00000 ...
  -0.00018  -0.00005   0.00038   0.00000   0.00038   0.00025   0.00000   0.00025  -0.03674   0.00000   0.00004   0.00000 ...
   0.00000   0.00000   0.00000   0.00025   0.00000   0.00000   0.00012   0.00000   0.00000  -0.03671   0.00000  -0.00004 ...
   0.00011   0.00003  -0.00022   0.00000  -0.00022  -0.00015   0.00000  -0.00015   0.00004   0.00000  -0.03670   0.00000 ...
   0.00000   0.00000   0.00000   0.00025   0.00000   0.00000   0.00012   0.00000   0.00000  -0.00004   0.00000  -0.03671 ...
   ...  only 12  components have been written...
 Atom # 31
   0.53216   0.07845  -0.00002  -0.00002   0.00000   0.00006   0.00006   0.00000   0.00000   0.00001  -0.00000   0.00000 ...
   0.07845   0.01118  -0.00001  -0.00001   0.00000   0.00001   0.00001   0.00000   0.00000   0.00000  -0.00000   0.00000 ...
  -0.00002  -0.00001  -0.16046   0.00007   0.00000  -0.02662   0.00006   0.00000   0.00000  -0.00003  -0.00002   0.00000 ...
  -0.00002  -0.00001   0.00007  -0.16046   0.00000   0.00006  -0.02662   0.00000   0.00000  -0.00003   0.00002   0.00000 ...
   0.00000   0.00000   0.00000   0.00000  -0.16048   0.00000   0.00000  -0.02662  -0.00000   0.00000   0.00000  -0.00000 ...
   0.00006   0.00001  -0.02662   0.00006   0.00000  -1.12353   0.00003   0.00000   0.00000  -0.00000  -0.00001   0.00000 ...
   0.00006   0.00001   0.00006  -0.02662   0.00000   0.00003  -1.12353   0.00000   0.00000  -0.00000   0.00002   0.00000 ...
   0.00000   0.00000   0.00000   0.00000  -0.02662   0.00000   0.00000  -1.12350  -0.00000   0.00000   0.00000  -0.00000 ...
   0.00000   0.00000   0.00000   0.00000  -0.00000   0.00000   0.00000  -0.00000  -0.03648   0.00000   0.00000   0.00001 ...
   0.00001   0.00000  -0.00003  -0.00003   0.00000  -0.00000  -0.00000   0.00000   0.00000  -0.03650   0.00000   0.00000 ...
  -0.00000  -0.00000  -0.00002   0.00002   0.00000  -0.00001   0.00002   0.00000   0.00000   0.00000  -0.03651   0.00000 ...
   0.00000   0.00000   0.00000   0.00000  -0.00000   0.00000   0.00000  -0.00000   0.00001   0.00000   0.00000  -0.03648 ...
   ...  only 12  components have been written...
 
 
 Augmentation waves occupancies Rhoij:
 Atom #  1
   0.07534  -1.46900   0.00079   0.00000   0.00079   0.00021   0.00000   0.00021  -0.01468   0.00000   0.00257   0.00000 ...
  -1.46900  28.92115  -0.01425   0.00000  -0.01425  -0.00366   0.00000  -0.00366   0.24214   0.00000  -0.06598   0.00000 ...
   0.00079  -0.01425   0.68925   0.00000   0.00652   0.18998   0.00000   0.00064   0.00806   0.00000  -0.00498   0.00000 ...
   0.00000   0.00000   0.00000   0.68178   0.00000   0.00000   0.18914   0.00000   0.00000   0.00671   0.00000   0.00671 ...
   0.00079  -0.01425   0.00652   0.00000   0.68925   0.00064   0.00000   0.18998   0.00806   0.00000  -0.00498   0.00000 ...
   0.00021  -0.00366   0.18998   0.00000   0.00064   0.05363   0.00000  -0.00016   0.00375   0.00000  -0.00187   0.00000 ...
   0.00000   0.00000   0.00000   0.18914   0.00000   0.00000   0.05376   0.00000   0.00000   0.00210   0.00000   0.00210 ...
   0.00021  -0.00366   0.00064   0.00000   0.18998  -0.00016   0.00000   0.05363   0.00375   0.00000  -0.00187   0.00000 ...
  -0.01468   0.24214   0.00806   0.00000   0.00806   0.00375   0.00000   0.00375   0.60271   0.00000  -0.06752   0.00000 ...
   0.00000   0.00000   0.00000   0.00671   0.00000   0.00000   0.00210   0.00000   0.00000   0.44921   0.00000  -0.04369 ...
   0.00257  -0.06598  -0.00498   0.00000  -0.00498  -0.00187   0.00000  -0.00187  -0.06752   0.00000   0.63334   0.00000 ...
   0.00000   0.00000   0.00000   0.00671   0.00000   0.00000   0.00210   0.00000   0.00000  -0.04369   0.00000   0.44921 ...
   ...  only 12  components have been written...
 pawio_print_ij: WARNING -
  The matrix seems to have high value(s) !
  (  1 components have a value greater than   25.0).
  It can cause instabilities during SCF convergence.
  Action: you should check your atomic dataset (psp file)
          and look for "high" projector functions...
 Atom # 31
   0.07720  -1.48818  -0.00017  -0.00017   0.00000   0.00001   0.00001   0.00000   0.00000  -0.00655   0.00038   0.00000 ...
  -1.48818  29.01552  -0.00083  -0.00083   0.00000  -0.00017  -0.00017   0.00000   0.00000   0.07062   0.00075   0.00000 ...
  -0.00017  -0.00083   0.68059  -0.00010   0.00000   0.18913  -0.00008   0.00000   0.00000   0.00084  -0.01495   0.00000 ...
  -0.00017  -0.00083  -0.00010   0.68059   0.00000  -0.00008   0.18913   0.00000   0.00000   0.00084   0.00755   0.00000 ...
   0.00000   0.00000   0.00000   0.00000   0.67865   0.00000   0.00000   0.18896   0.00660   0.00000   0.00000   0.00660 ...
   0.00001  -0.00017   0.18913  -0.00008   0.00000   0.05391  -0.00003   0.00000   0.00000  -0.00015  -0.00136   0.00000 ...
   0.00001  -0.00017  -0.00008   0.18913   0.00000  -0.00003   0.05391   0.00000   0.00000  -0.00015   0.00081   0.00000 ...
   0.00000   0.00000   0.00000   0.00000   0.18896   0.00000   0.00000   0.05392   0.00048   0.00000   0.00000   0.00048 ...
   0.00000   0.00000   0.00000   0.00000   0.00660   0.00000   0.00000   0.00048   0.57682   0.00000   0.00000   0.09072 ...
  -0.00655   0.07062   0.00084   0.00084   0.00000  -0.00015  -0.00015   0.00000   0.00000   0.51731   0.02183   0.00000 ...
   0.00038   0.00075  -0.01495   0.00755   0.00000  -0.00136   0.00081   0.00000   0.00000   0.02183   0.67338   0.00000 ...
   0.00000   0.00000   0.00000   0.00000   0.00660   0.00000   0.00000   0.00048   0.09072   0.00000   0.00000   0.57682 ...
   ...  only 12  components have been written...
 pawio_print_ij: WARNING -
  The matrix seems to have high value(s) !
  (  1 components have a value greater than   25.0).
  It can cause instabilities during SCF convergence.
  Action: you should check your atomic dataset (psp file)
          and look for "high" projector functions...
 
 
---
label     : results_gs
comment   : Summary of ground states results.
natom     :       31
nsppol    :        1
cut       : {"ecut":   8.00000000000000000E+00, "pawecutdg":   1.00000000000000000E+01, }
convergence: {
    "deltae":   8.64891133119272126E-03, "res2":   9.65419106068395906E-03, 
    "residm":   4.97953235780957648E+00, "diffor": undef, 
}
etotal    :  -8.04579838043067639E+02
entropy   :   0.00000000000000000E+00
fermie    :   4.92088764294346726E-01
stress tensor: !Tensor
- [  1.36333466534469677E-02,   0.00000000000000000E+00,   0.00000000000000000E+00, ]
- [  0.00000000000000000E+00,   1.36333466534469677E-02,   0.00000000000000000E+00, ]
- [  0.00000000000000000E+00,   0.00000000000000000E+00,   1.36333466534469538E-02, ]
 
cartesian forces: !CartForces
- [ -6.39556649547669553E-02,  -6.39556649547669415E-02,  -3.35752912859848434E-19, ]
- [ -6.39556649547669415E-02,  -2.79794100041331147E-19,  -6.39556649547669276E-02, ]
- [ -1.84664107929083113E-18,  -6.39556649547669276E-02,  -6.39556649547669415E-02, ]
- [ -1.84664111973316864E-18,  -2.79794109028517266E-19,  -3.35752930834220719E-19, ]
- [ -8.86147697321939924E-03,  -8.86147697321939577E-03,  -3.35752840962359293E-19, ]
- [ -6.39556649547669276E-02,  -2.79794082066958862E-19,   6.39556649547669276E-02, ]
- [ -1.84664116466909937E-18,  -6.39556649547669276E-02,   6.39556649547669415E-02, ]
- [ -1.84664111973316864E-18,  -2.79794109028517266E-19,  -3.35752930834220719E-19, ]
- [ -6.39556649547669553E-02,   6.39556649547669415E-02,  -3.35752952551791155E-19, ]
- [ -8.86147697321939924E-03,  -2.79794019156655840E-19,  -8.86147697321939751E-03, ]
- [ -1.84664109277161004E-18,   6.39556649547669276E-02,  -6.39556649547669415E-02, ]
- [ -1.84664111973316864E-18,  -2.79794109028517266E-19,  -3.35752930834220719E-19, ]
- [ -8.86147697321940098E-03,   8.86147697321939577E-03,  -3.35752916876216636E-19, ]
- [ -8.86147697321939751E-03,  -2.79794162951634121E-19,   8.86147697321939751E-03, ]
- [ -1.84664115118832008E-18,   6.39556649547669276E-02,   6.39556649547669415E-02, ]
- [ -1.84664111973316864E-18,  -2.79794109028517266E-19,  -3.35752930834220719E-19, ]
- [  6.39556649547669553E-02,  -6.39556649547669553E-02,  -3.35752909116650283E-19, ]
- [  6.39556649547669276E-02,  -2.79794135990075669E-19,  -6.39556649547669276E-02, ]
- [ -1.84664104334208646E-18,  -8.86147697321939577E-03,  -8.86147697321939577E-03, ]
- [ -1.84664111973316864E-18,  -2.79794109028517266E-19,  -3.35752930834220719E-19, ]
- [  8.86147697321939577E-03,  -8.86147697321939404E-03,  -3.35752980740969372E-19, ]
- [  6.39556649547669415E-02,  -2.79794118015703384E-19,   6.39556649547669276E-02, ]
- [ -1.84664109277161004E-18,  -8.86147697321939577E-03,   8.86147697321939577E-03, ]
- [ -1.84664111973316864E-18,  -2.79794109028517266E-19,  -3.35752930834220719E-19, ]
- [  6.39556649547669553E-02,   6.39556649547669553E-02,  -3.35752948808593004E-19, ]
- [  8.86147697321939577E-03,  -2.79794127002889551E-19,  -8.86147697321939577E-03, ]
- [ -1.84664116466909937E-18,   8.86147697321939577E-03,  -8.86147697321939577E-03, ]
- [ -1.84664111973316864E-18,  -2.79794109028517266E-19,  -3.35752930834220719E-19, ]
- [  8.86147697321939404E-03,   8.86147697321939404E-03,  -3.35752912859848434E-19, ]
- [  8.86147697321939577E-03,  -2.79794091054144980E-19,   8.86147697321939577E-03, ]
- [ -1.84664111523957541E-18,   8.86147697321939577E-03,   8.86147697321939577E-03, ]
...
 
================================================================================
 
 ----iterations are completed or convergence reached----
 
 Mean square residual over all n,k,spin=   31.121E-02; max=  49.795E-01
 reduced coordinates (array xred) for   31 atoms
       0.250000000000      0.250000000000      0.000000000000
       0.250000000000      0.000000000000      0.250000000000
       0.000000000000      0.250000000000      0.250000000000
       0.000000000000      0.000000000000      0.500000000000
       0.250000000000      0.250000000000      0.500000000000
       0.250000000000      0.000000000000      0.750000000000
       0.000000000000      0.250000000000      0.750000000000
       0.000000000000      0.500000000000      0.000000000000
       0.250000000000      0.750000000000      0.000000000000
       0.250000000000      0.500000000000      0.250000000000
       0.000000000000      0.750000000000      0.250000000000
       0.000000000000      0.500000000000      0.500000000000
       0.250000000000      0.750000000000      0.500000000000
       0.250000000000      0.500000000000      0.750000000000
       0.000000000000      0.750000000000      0.750000000000
       0.500000000000      0.000000000000      0.000000000000
       0.750000000000      0.250000000000      0.000000000000
       0.750000000000      0.000000000000      0.250000000000
       0.500000000000      0.250000000000      0.250000000000
       0.500000000000      0.000000000000      0.500000000000
       0.750000000000      0.250000000000      0.500000000000
       0.750000000000      0.000000000000      0.750000000000
       0.500000000000      0.250000000000      0.750000000000
       0.500000000000      0.500000000000      0.000000000000
       0.750000000000      0.750000000000      0.000000000000
       0.750000000000      0.500000000000      0.250000000000
       0.500000000000      0.750000000000      0.250000000000
       0.500000000000      0.500000000000      0.500000000000
       0.750000000000      0.750000000000      0.500000000000
       0.750000000000      0.500000000000      0.750000000000
       0.500000000000      0.750000000000      0.750000000000
 rms dE/dt=  5.0315E-01; max dE/dt=  9.8108E-01; dE/dt below (all hartree)
    1       0.981079900406      0.981079900406     -0.000000000000
    2       0.981079900406     -0.000000000000      0.981079900406
    3      -0.000000000000      0.981079900406      0.981079900406
    4       0.000000000000      0.000000000000      0.000000000000
    5       0.135935056769      0.135935056769     -0.000000000000
    6       0.981079900406     -0.000000000000     -0.981079900406
    7       0.000000000000      0.981079900406     -0.981079900406
    8       0.000000000000      0.000000000000      0.000000000000
    9       0.981079900406     -0.981079900406      0.000000000000
   10       0.135935056769     -0.000000000000      0.135935056769
   11      -0.000000000000     -0.981079900406      0.981079900406
   12       0.000000000000      0.000000000000      0.000000000000
   13       0.135935056769     -0.135935056769     -0.000000000000
   14       0.135935056769      0.000000000000     -0.135935056769
   15       0.000000000000     -0.981079900406     -0.981079900406
   16       0.000000000000      0.000000000000      0.000000000000
   17      -0.981079900406      0.981079900406     -0.000000000000
   18      -0.981079900406      0.000000000000      0.981079900406
   19      -0.000000000000      0.135935056769      0.135935056769
   20       0.000000000000      0.000000000000      0.000000000000
   21      -0.135935056769      0.135935056769      0.000000000000
   22      -0.981079900406      0.000000000000     -0.981079900406
   23      -0.000000000000      0.135935056769     -0.135935056769
   24       0.000000000000      0.000000000000      0.000000000000
   25      -0.981079900406     -0.981079900406      0.000000000000
   26      -0.135935056769      0.000000000000      0.135935056769
   27       0.000000000000     -0.135935056769      0.135935056769
   28       0.000000000000      0.000000000000      0.000000000000
   29      -0.135935056769     -0.135935056769     -0.000000000000
   30      -0.135935056769     -0.000000000000     -0.135935056769
   31      -0.000000000000     -0.135935056769     -0.135935056769
 
 cartesian coordinates (angstrom) at end:
    1      2.02939459494265     2.02939459494265     0.00000000000000
    2      2.02939459494265     0.00000000000000     2.02939459494265
    3      0.00000000000000     2.02939459494265     2.02939459494265
    4      0.00000000000000     0.00000000000000     4.05878918988530
    5      2.02939459494265     2.02939459494265     4.05878918988530
    6      2.02939459494265     0.00000000000000     6.08818378482795
    7      0.00000000000000     2.02939459494265     6.08818378482795
    8      0.00000000000000     4.05878918988530     0.00000000000000
    9      2.02939459494265     6.08818378482795     0.00000000000000
   10      2.02939459494265     4.05878918988530     2.02939459494265
   11      0.00000000000000     6.08818378482795     2.02939459494265
   12      0.00000000000000     4.05878918988530     4.05878918988530
   13      2.02939459494265     6.08818378482795     4.05878918988530
   14      2.02939459494265     4.05878918988530     6.08818378482795
   15      0.00000000000000     6.08818378482795     6.08818378482795
   16      4.05878918988530     0.00000000000000     0.00000000000000
   17      6.08818378482795     2.02939459494265     0.00000000000000
   18      6.08818378482795     0.00000000000000     2.02939459494265
   19      4.05878918988530     2.02939459494265     2.02939459494265
   20      4.05878918988530     0.00000000000000     4.05878918988530
   21      6.08818378482795     2.02939459494265     4.05878918988530
   22      6.08818378482795     0.00000000000000     6.08818378482795
   23      4.05878918988530     2.02939459494265     6.08818378482795
   24      4.05878918988530     4.05878918988530     0.00000000000000
   25      6.08818378482795     6.08818378482795     0.00000000000000
   26      6.08818378482795     4.05878918988530     2.02939459494265
   27      4.05878918988530     6.08818378482795     2.02939459494265
   28      4.05878918988530     4.05878918988530     4.05878918988530
   29      6.08818378482795     6.08818378482795     4.05878918988530
   30      6.08818378482795     4.05878918988530     6.08818378482795
   31      4.05878918988530     6.08818378482795     6.08818378482795
 
 cartesian forces (hartree/bohr) at end:
    1     -0.06395566495477    -0.06395566495477    -0.00000000000000
    2     -0.06395566495477    -0.00000000000000    -0.06395566495477
    3     -0.00000000000000    -0.06395566495477    -0.06395566495477
    4     -0.00000000000000    -0.00000000000000    -0.00000000000000
    5     -0.00886147697322    -0.00886147697322    -0.00000000000000
    6     -0.06395566495477    -0.00000000000000     0.06395566495477
    7     -0.00000000000000    -0.06395566495477     0.06395566495477
    8     -0.00000000000000    -0.00000000000000    -0.00000000000000
    9     -0.06395566495477     0.06395566495477    -0.00000000000000
   10     -0.00886147697322    -0.00000000000000    -0.00886147697322
   11     -0.00000000000000     0.06395566495477    -0.06395566495477
   12     -0.00000000000000    -0.00000000000000    -0.00000000000000
   13     -0.00886147697322     0.00886147697322    -0.00000000000000
   14     -0.00886147697322    -0.00000000000000     0.00886147697322
   15     -0.00000000000000     0.06395566495477     0.06395566495477
   16     -0.00000000000000    -0.00000000000000    -0.00000000000000
   17      0.06395566495477    -0.06395566495477    -0.00000000000000
   18      0.06395566495477    -0.00000000000000    -0.06395566495477
   19     -0.00000000000000    -0.00886147697322    -0.00886147697322
   20     -0.00000000000000    -0.00000000000000    -0.00000000000000
   21      0.00886147697322    -0.00886147697322    -0.00000000000000
   22      0.06395566495477    -0.00000000000000     0.06395566495477
   23     -0.00000000000000    -0.00886147697322     0.00886147697322
   24     -0.00000000000000    -0.00000000000000    -0.00000000000000
   25      0.06395566495477     0.06395566495477    -0.00000000000000
   26      0.00886147697322    -0.00000000000000    -0.00886147697322
   27     -0.00000000000000     0.00886147697322    -0.00886147697322
   28     -0.00000000000000    -0.00000000000000    -0.00000000000000
   29      0.00886147697322     0.00886147697322    -0.00000000000000
   30      0.00886147697322    -0.00000000000000     0.00886147697322
   31     -0.00000000000000     0.00886147697322     0.00886147697322
 frms,max,avg= 3.2799893E-02 6.3955665E-02   0.000E+00  0.000E+00  0.000E+00 h/b
 
 cartesian forces (eV/Angstrom) at end:
    1     -3.28873224480477    -3.28873224480477    -0.00000000000000
    2     -3.28873224480477    -0.00000000000000    -3.28873224480477
    3     -0.00000000000000    -3.28873224480477    -3.28873224480477
    4     -0.00000000000000    -0.00000000000000    -0.00000000000000
    5     -0.45567542889333    -0.45567542889333    -0.00000000000000
    6     -3.28873224480477    -0.00000000000000     3.28873224480477
    7     -0.00000000000000    -3.28873224480477     3.28873224480477
    8     -0.00000000000000    -0.00000000000000    -0.00000000000000
    9     -3.28873224480477     3.28873224480477    -0.00000000000000
   10     -0.45567542889333    -0.00000000000000    -0.45567542889333
   11     -0.00000000000000     3.28873224480477    -3.28873224480477
   12     -0.00000000000000    -0.00000000000000    -0.00000000000000
   13     -0.45567542889333     0.45567542889333    -0.00000000000000
   14     -0.45567542889333    -0.00000000000000     0.45567542889333
   15     -0.00000000000000     3.28873224480477     3.28873224480477
   16     -0.00000000000000    -0.00000000000000    -0.00000000000000
   17      3.28873224480477    -3.28873224480477    -0.00000000000000
   18      3.28873224480477    -0.00000000000000    -3.28873224480477
   19     -0.00000000000000    -0.45567542889333    -0.45567542889333
   20     -0.00000000000000    -0.00000000000000    -0.00000000000000
   21      0.45567542889333    -0.45567542889333    -0.00000000000000
   22      3.28873224480477    -0.00000000000000     3.28873224480477
   23     -0.00000000000000    -0.45567542889333     0.45567542889333
   24     -0.00000000000000    -0.00000000000000    -0.00000000000000
   25      3.28873224480477     3.28873224480477    -0.00000000000000
   26      0.45567542889333    -0.00000000000000    -0.45567542889333
   27     -0.00000000000000     0.45567542889333    -0.45567542889333
   28     -0.00000000000000    -0.00000000000000    -0.00000000000000
   29      0.45567542889333     0.45567542889333    -0.00000000000000
   30      0.45567542889333    -0.00000000000000     0.45567542889333
   31     -0.00000000000000     0.45567542889333     0.45567542889333
 frms,max,avg= 1.6866382E+00 3.2887322E+00   0.000E+00  0.000E+00  0.000E+00 e/A
 length scales= 15.340000000000 15.340000000000 15.340000000000 bohr
              =  8.117578379771  8.117578379771  8.117578379771 angstroms
 Fermi (or HOMO) energy (hartree) =   0.49209   Average Vxc (hartree)=  -0.45133
 Eigenvalues (hartree) for nkpt=   1  k points:
 kpt#   1, nband=192, wtk=  1.00000, kpt=  0.0000  0.0000  0.0000 (reduced coord)
  -0.85980   -0.80437   -0.80381   -0.79793   -0.79756   -0.79725   -0.78972   -0.76612
  -0.76539   -0.76135   -0.75922   -0.75754   -0.75687   -0.75640   -0.75611   -0.75596
  -0.75558   -0.75491   -0.75473   -0.75178   -0.75148   -0.75144   -0.72481   -0.71208
  -0.71200   -0.71174   -0.70692   -0.70686   -0.70684   -0.70443   -0.70443   -0.36614
  -0.36195   -0.36194   -0.36194   -0.34058   -0.34055   -0.34054   -0.28468   -0.28452
  -0.28447   -0.28255   -0.28253   -0.28251   -0.28149   -0.28102   -0.28083   -0.27737
  -0.27708   -0.27698   -0.27673   -0.27653   -0.27624   -0.27609   -0.27599   -0.27508
  -0.27500   -0.27489   -0.27467   -0.25287   -0.25272   -0.25258   -0.22292   -0.22261
  -0.22243   -0.22218   -0.22193   -0.21842   -0.21765   -0.21756   -0.21750   -0.20884
  -0.20877   -0.20861   -0.20828   -0.20030   -0.20019   -0.20006   -0.19898   -0.19879
  -0.19044   -0.19020   -0.18980   -0.18963   -0.18947   -0.18876   -0.17886   -0.17885
  -0.17885   -0.15661   -0.15656   -0.15651   -0.13403   -0.13403   -0.13403   -0.13335
  -0.13335   -0.13335   -0.12647   -0.12647   -0.12647   -0.12346   -0.12345   -0.12344
  -0.11127   -0.11126   -0.11126   -0.11095   -0.11095   -0.11095   -0.11085   -0.10993
  -0.10993   -0.10993   -0.10760   -0.10760   -0.10154   -0.10152   -0.10025   -0.10024
  -0.10024   -0.06937   -0.06937   -0.06937    0.27153    0.27154    0.27154    0.33923
   0.33923    0.35275    0.35393    0.35400    0.35402    0.35408    0.38711    0.38729
   0.40619    0.40620    0.40622    0.40720    0.42803    0.42866    0.45648    0.45887
   0.46009    0.46835    0.46936    0.46943    0.46949    0.47257    0.47259    0.47259
   0.47325    0.48341    0.49331    0.49378    0.49405    0.49736    0.50051    0.50275
   0.50691    0.50875    0.50951    0.50999    0.51164    0.51205    0.51326    0.51352
   0.51466    0.51736    0.58530    0.77289    0.77844    0.79673    0.82400    0.83845
   0.85859    0.87280    0.88390    0.93020    0.97647    0.97686    0.97870    1.07113
   1.16963    1.19594    1.21924    1.25472    1.33073    1.51313    1.71708    1.81439
      occupation numbers for kpt#   1
   2.00000    2.00000    2.00000    2.00000    2.00000    2.00000    2.00000    2.00000
   2.00000    2.00000    2.00000    2.00000    2.00000    2.00000    2.00000    2.00000
   2.00000    2.00000    2.00000    2.00000    2.00000    2.00000    2.00000    2.00000
   2.00000    2.00000    2.00000    2.00000    2.00000    2.00000    2.00000    2.00000
   2.00000    2.00000    2.00000    2.00000    2.00000    2.00000    2.00000    2.00000
   2.00000    2.00000    2.00000    2.00000    2.00000    2.00000    2.00000    2.00000
   2.00000    2.00000    2.00000    2.00000    2.00000    2.00000    2.00000    2.00000
   2.00000    2.00000    2.00000    2.00000    2.00000    2.00000    2.00000    2.00000
   2.00000    2.00000    2.00000    2.00000    2.00000    2.00000    2.00000    2.00000
   2.00000    2.00000    2.00000    2.00000    2.00000    2.00000    2.00000    2.00000
   2.00000    2.00000    2.00000    2.00000    2.00000    2.00000    2.00000    2.00000
   2.00000    2.00000    2.00000    2.00000    2.00000    2.00000    2.00000    2.00000
   2.00000    2.00000    2.00000    2.00000    2.00000    2.00000    2.00000    2.00000
   2.00000    2.00000    2.00000    2.00000    2.00000    2.00000    2.00000    2.00000
   2.00000    2.00000    2.00000    2.00000    2.00000    2.00000    2.00000    2.00000
   2.00000    2.00000    2.00000    2.00000    2.00000    2.00000    2.00000    2.00000
   2.00000    2.00000    2.00000    2.00000    2.00000    2.00000    2.00000    2.00000
   2.00000    2.00000    2.00000    2.00000    2.00000    2.00000    2.00000    2.00000
   2.00000    1.99999    1.99998    1.99998    1.99998    1.99988    1.99988    1.99988
   1.99984    1.97431    0.70488    0.60078    0.54527    0.13394    0.02917    0.00963
   0.00121    0.00048    0.00033    0.00026    0.00011    0.00009    0.00005    0.00004
   0.00003    0.00001    0.00000    0.00000    0.00000    0.00000    0.00000    0.00000
   0.00000    0.00000    0.00000    0.00000    0.00000    0.00000    0.00000    0.00000
   0.00000    0.00000    0.00000    0.00000    0.00000    0.00000    0.00000    0.00000
 
--------------------------------------------------------------------------------
 Components of total free energy (in Hartree) :
 
    Kinetic energy  =  2.16880034150006E+02
    Hartree energy  =  1.98990300939011E+01
    XC energy       = -1.09001557236252E+02
    Ewald energy    =-9.05896420881061E+02
    PspCore energy  =  1.58170863145426E+02
    Loc. psp. energy= -6.86805545549271E+01
    Spherical terms = -4.97664642983604E+01
    >>>>> Internal E= -7.38395069581268E+02
 
    -kT*entropy     = -9.12975530757440E-03
    >>>>>>>>> Etotal= -7.38404199336575E+02
 
 "Double-counting" decomposition of free energy:
    Band energy     = -5.87838562690496E+01
    Ewald energy    =-9.05896420881061E+02
    PspCore energy  =  1.58170863145426E+02
    Dble-C XC-energy=  1.00196344211756E+01
    Spherical terms = -8.08092870425163E+00
    >>>>> Internal E= -8.04570708287760E+02
 
    -kT*entropy     = -9.12975530757440E-03
    >>>> Etotal (DC)= -8.04579838043068E+02
 
  >Total energy in eV           = -2.00930001119835E+04
  >Total DC energy in eV        = -2.18937308190065E+04
--------------------------------------------------------------------------------
--- !ETOT
label               : Etot
comment             : Components of total free energy (in Hartree)
Kinetic energy      :  2.168800341500056277E+02
Hartree energy      :  1.989903009390107513E+01
XC energy           : -1.090015572362523102E+02
Ewald energy        : -9.058964208810605214E+02
PsPCore             :  1.581708631454260683E+02
Loc. psp. energy    : -6.868055455492711303E+01
Spherical terms     : -4.976646429836044661E+01
Internal E          : -7.383950695812676486E+02
'-kT*entropy'       : -9.129755307574404996E-03
Etotal              : -7.384041993365751750E+02
Total energy(eV)    : -2.009300011198350694E+04
...
 
--- !ETOT
label               : Etot DC
comment             : '"Double-counting" decomposition of free energy'
Band energy         : -5.878385626904960759E+01
Ewald energy        : -9.058964208810605214E+02
PspCore energy      :  1.581708631454260683E+02
'Dble-C XC-energy'  :  1.001963442117559566E+01
Spherical terms     : -8.080928704251627792E+00
Internal E          : -8.045707082877601124E+02
'-kT*entropy'       : -9.129755307574404996E-03
Etotal (DC)         : -8.045798380430676389E+02
Total DC energy(eV) : -2.009300011198350694E+04
...
 
 
 Cartesian components of stress tensor (hartree/bohr^3)
  sigma(1 1)=  1.36333467E-02  sigma(3 2)=  0.00000000E+00
  sigma(2 2)=  1.36333467E-02  sigma(3 1)=  0.00000000E+00
  sigma(3 3)=  1.36333467E-02  sigma(2 1)=  0.00000000E+00
 
-Cartesian components of stress tensor (GPa)         [Pressure= -4.0111E+02 GPa]
- sigma(1 1)=  4.01106839E+02  sigma(3 2)=  0.00000000E+00
- sigma(2 2)=  4.01106839E+02  sigma(3 1)=  0.00000000E+00
- sigma(3 3)=  4.01106839E+02  sigma(2 1)=  0.00000000E+00
 
== END DATASET(S) ==============================================================
================================================================================
  
 -outvars: echo values of variables after computation  --------
-          iomode           1
            acell      1.5340000000E+01  1.5340000000E+01  1.5340000000E+01 Bohr
              amu      1.37327000E+02
           bandpp          96
      chksymbreak           0
     densfor_pred           6
             ecut      8.00000000E+00 Hartree
           etotal     -8.0457983804E+02
            fcart     -6.3955664955E-02 -6.3955664955E-02 -3.3575291286E-19
                      -6.3955664955E-02 -2.7979410004E-19 -6.3955664955E-02
                      -1.8466410793E-18 -6.3955664955E-02 -6.3955664955E-02
                      -1.8466411197E-18 -2.7979410903E-19 -3.3575293083E-19
                      -8.8614769732E-03 -8.8614769732E-03 -3.3575284096E-19
                      -6.3955664955E-02 -2.7979408207E-19  6.3955664955E-02
                      -1.8466411647E-18 -6.3955664955E-02  6.3955664955E-02
                      -1.8466411197E-18 -2.7979410903E-19 -3.3575293083E-19
                      -6.3955664955E-02  6.3955664955E-02 -3.3575295255E-19
                      -8.8614769732E-03 -2.7979401916E-19 -8.8614769732E-03
                      -1.8466410928E-18  6.3955664955E-02 -6.3955664955E-02
                      -1.8466411197E-18 -2.7979410903E-19 -3.3575293083E-19
                      -8.8614769732E-03  8.8614769732E-03 -3.3575291688E-19
                      -8.8614769732E-03 -2.7979416295E-19  8.8614769732E-03
                      -1.8466411512E-18  6.3955664955E-02  6.3955664955E-02
                      -1.8466411197E-18 -2.7979410903E-19 -3.3575293083E-19
                       6.3955664955E-02 -6.3955664955E-02 -3.3575290912E-19
                       6.3955664955E-02 -2.7979413599E-19 -6.3955664955E-02
                      -1.8466410433E-18 -8.8614769732E-03 -8.8614769732E-03
                      -1.8466411197E-18 -2.7979410903E-19 -3.3575293083E-19
                       8.8614769732E-03 -8.8614769732E-03 -3.3575298074E-19
                       6.3955664955E-02 -2.7979411802E-19  6.3955664955E-02
                      -1.8466410928E-18 -8.8614769732E-03  8.8614769732E-03
                      -1.8466411197E-18 -2.7979410903E-19 -3.3575293083E-19
                       6.3955664955E-02  6.3955664955E-02 -3.3575294881E-19
                       8.8614769732E-03 -2.7979412700E-19 -8.8614769732E-03
                      -1.8466411647E-18  8.8614769732E-03 -8.8614769732E-03
                      -1.8466411197E-18 -2.7979410903E-19 -3.3575293083E-19
                       8.8614769732E-03  8.8614769732E-03 -3.3575291286E-19
                       8.8614769732E-03 -2.7979409105E-19  8.8614769732E-03
                      -1.8466411152E-18  8.8614769732E-03  8.8614769732E-03
-          fftalg         312
           istwfk        1
              ixc           7
           kptopt           0
P           mkmem           1
            natom          31
            nband         192
            ngfft          40      40      40
          ngfftdg          45      45      45
             nkpt           1
-          npband           2
            nstep          40
             nsym          48
           ntypat           1
              occ      2.000000  2.000000  2.000000  2.000000  2.000000  2.000000
                       2.000000  2.000000  2.000000  2.000000  2.000000  2.000000
                       2.000000  2.000000  2.000000  2.000000  2.000000  2.000000
                       2.000000  2.000000  2.000000  2.000000  2.000000  2.000000
                       2.000000  2.000000  2.000000  2.000000  2.000000  2.000000
                       2.000000  2.000000  2.000000  2.000000  2.000000  2.000000
                       2.000000  2.000000  2.000000  2.000000  2.000000  2.000000
                       2.000000  2.000000  2.000000  2.000000  2.000000  2.000000
                       2.000000  2.000000  2.000000  2.000000  2.000000  2.000000
                       2.000000  2.000000  2.000000  2.000000  2.000000  2.000000
                       2.000000  2.000000  2.000000  2.000000  2.000000  2.000000
                       2.000000  2.000000  2.000000  2.000000  2.000000  2.000000
                       2.000000  2.000000  2.000000  2.000000  2.000000  2.000000
                       2.000000  2.000000  2.000000  2.000000  2.000000  2.000000
                       2.000000  2.000000  2.000000  2.000000  2.000000  2.000000
                       2.000000  2.000000  2.000000  2.000000  2.000000  2.000000
                       2.000000  2.000000  2.000000  2.000000  2.000000  2.000000
                       2.000000  2.000000  2.000000  2.000000  2.000000  2.000000
                       2.000000  2.000000  2.000000  2.000000  2.000000  2.000000
                       2.000000  2.000000  2.000000  2.000000  2.000000  2.000000
                       2.000000  2.000000  2.000000  2.000000  2.000000  2.000000
                       2.000000  2.000000  2.000000  2.000000  2.000000  2.000000
                       2.000000  2.000000  2.000000  2.000000  2.000000  2.000000
                       2.000000  2.000000  2.000000  2.000000  2.000000  2.000000
                       2.000000  1.999986  1.999977  1.999976  1.999975  1.999885
                       1.999883  1.999883  1.999838  1.974306  0.704878  0.600785
                       0.545271  0.133940  0.029174  0.009631  0.001208  0.000482
                       0.000330  0.000259  0.000113  0.000093  0.000051  0.000044
                       0.000025  0.000006  0.000000  0.000000  0.000000  0.000000
                       0.000000  0.000000  0.000000  0.000000  0.000000  0.000000
                       0.000000  0.000000  0.000000  0.000000  0.000000  0.000000
                       0.000000  0.000000  0.000000  0.000000  0.000000  0.000000
           occopt           3
        paral_kgb           1
        pawecutdg      1.00000000E+01 Hartree
           prtden           0
           prteig           0
            prtwf           0
          spgroup         221
           strten      1.3633346653E-02  1.3633346653E-02  1.3633346653E-02
                       0.0000000000E+00  0.0000000000E+00  0.0000000000E+00
           symrel      1  0  0   0  1  0   0  0  1      -1  0  0   0 -1  0   0  0 -1
                      -1  0  0   0  1  0   0  0 -1       1  0  0   0 -1  0   0  0  1
                      -1  0  0   0 -1  0   0  0  1       1  0  0   0  1  0   0  0 -1
                       1  0  0   0 -1  0   0  0 -1      -1  0  0   0  1  0   0  0  1
                       0  1  0   1  0  0   0  0  1       0 -1  0  -1  0  0   0  0 -1
                       0 -1  0   1  0  0   0  0 -1       0  1  0  -1  0  0   0  0  1
                       0 -1  0  -1  0  0   0  0  1       0  1  0   1  0  0   0  0 -1
                       0  1  0  -1  0  0   0  0 -1       0 -1  0   1  0  0   0  0  1
                       0  0  1   1  0  0   0  1  0       0  0 -1  -1  0  0   0 -1  0
                       0  0 -1   1  0  0   0 -1  0       0  0  1  -1  0  0   0  1  0
                       0  0 -1  -1  0  0   0  1  0       0  0  1   1  0  0   0 -1  0
                       0  0  1  -1  0  0   0 -1  0       0  0 -1   1  0  0   0  1  0
                       1  0  0   0  0  1   0  1  0      -1  0  0   0  0 -1   0 -1  0
                      -1  0  0   0  0  1   0 -1  0       1  0  0   0  0 -1   0  1  0
                      -1  0  0   0  0 -1   0  1  0       1  0  0   0  0  1   0 -1  0
                       1  0  0   0  0 -1   0 -1  0      -1  0  0   0  0  1   0  1  0
                       0  1  0   0  0  1   1  0  0       0 -1  0   0  0 -1  -1  0  0
                       0 -1  0   0  0  1  -1  0  0       0  1  0   0  0 -1   1  0  0
                       0 -1  0   0  0 -1   1  0  0       0  1  0   0  0  1  -1  0  0
                       0  1  0   0  0 -1  -1  0  0       0 -1  0   0  0  1   1  0  0
                       0  0  1   0  1  0   1  0  0       0  0 -1   0 -1  0  -1  0  0
                       0  0 -1   0  1  0  -1  0  0       0  0  1   0 -1  0   1  0  0
                       0  0 -1   0 -1  0   1  0  0       0  0  1   0  1  0  -1  0  0
                       0  0  1   0 -1  0  -1  0  0       0  0 -1   0  1  0   1  0  0
           timopt          -3
           toldfe      1.00000000E-05 Hartree
           tsmear      2.00000000E-03 Hartree
            typat      1  1  1  1  1  1  1  1  1  1  1  1  1  1  1  1  1  1  1  1
                       1  1  1  1  1  1  1  1  1  1  1
           useylm           1
         wfoptalg         111
           xangst      2.0293945949E+00  2.0293945949E+00  0.0000000000E+00
                       2.0293945949E+00  0.0000000000E+00  2.0293945949E+00
                       0.0000000000E+00  2.0293945949E+00  2.0293945949E+00
                       0.0000000000E+00  0.0000000000E+00  4.0587891899E+00
                       2.0293945949E+00  2.0293945949E+00  4.0587891899E+00
                       2.0293945949E+00  0.0000000000E+00  6.0881837848E+00
                       0.0000000000E+00  2.0293945949E+00  6.0881837848E+00
                       0.0000000000E+00  4.0587891899E+00  0.0000000000E+00
                       2.0293945949E+00  6.0881837848E+00  0.0000000000E+00
                       2.0293945949E+00  4.0587891899E+00  2.0293945949E+00
                       0.0000000000E+00  6.0881837848E+00  2.0293945949E+00
                       0.0000000000E+00  4.0587891899E+00  4.0587891899E+00
                       2.0293945949E+00  6.0881837848E+00  4.0587891899E+00
                       2.0293945949E+00  4.0587891899E+00  6.0881837848E+00
                       0.0000000000E+00  6.0881837848E+00  6.0881837848E+00
                       4.0587891899E+00  0.0000000000E+00  0.0000000000E+00
                       6.0881837848E+00  2.0293945949E+00  0.0000000000E+00
                       6.0881837848E+00  0.0000000000E+00  2.0293945949E+00
                       4.0587891899E+00  2.0293945949E+00  2.0293945949E+00
                       4.0587891899E+00  0.0000000000E+00  4.0587891899E+00
                       6.0881837848E+00  2.0293945949E+00  4.0587891899E+00
                       6.0881837848E+00  0.0000000000E+00  6.0881837848E+00
                       4.0587891899E+00  2.0293945949E+00  6.0881837848E+00
                       4.0587891899E+00  4.0587891899E+00  0.0000000000E+00
                       6.0881837848E+00  6.0881837848E+00  0.0000000000E+00
                       6.0881837848E+00  4.0587891899E+00  2.0293945949E+00
                       4.0587891899E+00  6.0881837848E+00  2.0293945949E+00
                       4.0587891899E+00  4.0587891899E+00  4.0587891899E+00
                       6.0881837848E+00  6.0881837848E+00  4.0587891899E+00
                       6.0881837848E+00  4.0587891899E+00  6.0881837848E+00
                       4.0587891899E+00  6.0881837848E+00  6.0881837848E+00
            xcart      3.8350000000E+00  3.8350000000E+00  0.0000000000E+00
                       3.8350000000E+00  0.0000000000E+00  3.8350000000E+00
                       0.0000000000E+00  3.8350000000E+00  3.8350000000E+00
                       0.0000000000E+00  0.0000000000E+00  7.6700000000E+00
                       3.8350000000E+00  3.8350000000E+00  7.6700000000E+00
                       3.8350000000E+00  0.0000000000E+00  1.1505000000E+01
                       0.0000000000E+00  3.8350000000E+00  1.1505000000E+01
                       0.0000000000E+00  7.6700000000E+00  0.0000000000E+00
                       3.8350000000E+00  1.1505000000E+01  0.0000000000E+00
                       3.8350000000E+00  7.6700000000E+00  3.8350000000E+00
                       0.0000000000E+00  1.1505000000E+01  3.8350000000E+00
                       0.0000000000E+00  7.6700000000E+00  7.6700000000E+00
                       3.8350000000E+00  1.1505000000E+01  7.6700000000E+00
                       3.8350000000E+00  7.6700000000E+00  1.1505000000E+01
                       0.0000000000E+00  1.1505000000E+01  1.1505000000E+01
                       7.6700000000E+00  0.0000000000E+00  0.0000000000E+00
                       1.1505000000E+01  3.8350000000E+00  0.0000000000E+00
                       1.1505000000E+01  0.0000000000E+00  3.8350000000E+00
                       7.6700000000E+00  3.8350000000E+00  3.8350000000E+00
                       7.6700000000E+00  0.0000000000E+00  7.6700000000E+00
                       1.1505000000E+01  3.8350000000E+00  7.6700000000E+00
                       1.1505000000E+01  0.0000000000E+00  1.1505000000E+01
                       7.6700000000E+00  3.8350000000E+00  1.1505000000E+01
                       7.6700000000E+00  7.6700000000E+00  0.0000000000E+00
                       1.1505000000E+01  1.1505000000E+01  0.0000000000E+00
                       1.1505000000E+01  7.6700000000E+00  3.8350000000E+00
                       7.6700000000E+00  1.1505000000E+01  3.8350000000E+00
                       7.6700000000E+00  7.6700000000E+00  7.6700000000E+00
                       1.1505000000E+01  1.1505000000E+01  7.6700000000E+00
                       1.1505000000E+01  7.6700000000E+00  1.1505000000E+01
                       7.6700000000E+00  1.1505000000E+01  1.1505000000E+01
             xred      2.5000000000E-01  2.5000000000E-01  0.0000000000E+00
                       2.5000000000E-01  0.0000000000E+00  2.5000000000E-01
                       0.0000000000E+00  2.5000000000E-01  2.5000000000E-01
                       0.0000000000E+00  0.0000000000E+00  5.0000000000E-01
                       2.5000000000E-01  2.5000000000E-01  5.0000000000E-01
                       2.5000000000E-01  0.0000000000E+00  7.5000000000E-01
                       0.0000000000E+00  2.5000000000E-01  7.5000000000E-01
                       0.0000000000E+00  5.0000000000E-01  0.0000000000E+00
                       2.5000000000E-01  7.5000000000E-01  0.0000000000E+00
                       2.5000000000E-01  5.0000000000E-01  2.5000000000E-01
                       0.0000000000E+00  7.5000000000E-01  2.5000000000E-01
                       0.0000000000E+00  5.0000000000E-01  5.0000000000E-01
                       2.5000000000E-01  7.5000000000E-01  5.0000000000E-01
                       2.5000000000E-01  5.0000000000E-01  7.5000000000E-01
                       0.0000000000E+00  7.5000000000E-01  7.5000000000E-01
                       5.0000000000E-01  0.0000000000E+00  0.0000000000E+00
                       7.5000000000E-01  2.5000000000E-01  0.0000000000E+00
                       7.5000000000E-01  0.0000000000E+00  2.5000000000E-01
                       5.0000000000E-01  2.5000000000E-01  2.5000000000E-01
                       5.0000000000E-01  0.0000000000E+00  5.0000000000E-01
                       7.5000000000E-01  2.5000000000E-01  5.0000000000E-01
                       7.5000000000E-01  0.0000000000E+00  7.5000000000E-01
                       5.0000000000E-01  2.5000000000E-01  7.5000000000E-01
                       5.0000000000E-01  5.0000000000E-01  0.0000000000E+00
                       7.5000000000E-01  7.5000000000E-01  0.0000000000E+00
                       7.5000000000E-01  5.0000000000E-01  2.5000000000E-01
                       5.0000000000E-01  7.5000000000E-01  2.5000000000E-01
                       5.0000000000E-01  5.0000000000E-01  5.0000000000E-01
                       7.5000000000E-01  7.5000000000E-01  5.0000000000E-01
                       7.5000000000E-01  5.0000000000E-01  7.5000000000E-01
                       5.0000000000E-01  7.5000000000E-01  7.5000000000E-01
            znucl       56.00000
 
================================================================================
 
 Test the timer : 
  a combined call timab(*,1,tsec) + timab(*,2,tsec) is 
- CPU time =    3.5158E-06 sec,    Wall time =    3.5156E-06 sec

- Total cpu        time (s,m,h):        818.7       13.64      0.227
- Total wall clock time (s,m,h):        819.5       13.66      0.228
-
- For major independent code sections, cpu and wall times (sec),
-  as well as % of the time and number of calls for node 0-
-<BEGIN_TIMER mpi_nprocs = 2, omp_nthreads = 1, mpi_rank = 0>
- cpu_time =          409.4, wall_time =          409.7
-
- routine                        cpu     %       wall     %      number of calls  Gflops    Speedup Efficacity
-                                                                  (-1=no count)
- vtowfk(ssdiag)               385.860  47.1    386.056  47.1             -1      -1.00        1.00       1.00
- chebfiwf2                    385.848  47.1    386.045  47.1             42      -1.00        1.00       1.00
- nonlop(apply)                286.345  35.0    286.455  35.0            546      -1.00        1.00       1.00
- fourwf%(pot)                  28.046   3.4     28.059   3.4            210      -1.00        1.00       1.00
- vtowfk(contrib)                7.960   1.0      7.964   1.0             40      -1.00        1.00       1.00
- mkrho/=                        3.518   0.4      3.519   0.4             80      -1.00        1.00       1.00
- pawdenpot                      2.203   0.3      2.204   0.3             40      -1.00        1.00       1.00
- pawmkrho                       1.408   0.2      1.409   0.2             40      -1.00        1.00       1.00
- pawdij/symdij                  1.260   0.2      1.261   0.2             40      -1.00        1.00       1.00
- pawmkrho:symrhoij              1.124   0.1      1.125   0.1             40      -1.00        1.00       1.00
- pspini                         0.800   0.1      0.800   0.1              1      -1.00        1.00       1.00
- fourdp                         0.564   0.1      0.581   0.1            366      -1.00        0.97       0.97
- getghc-other                   0.562   0.1      0.561   0.1             -1      -1.00        1.00       1.00
- ewald                          0.485   0.1      0.485   0.1              1      -1.00        1.00       1.00
- xc:pot/=fourdp                 0.357   0.0      0.357   0.0             41      -1.00        1.00       1.00
- vtorho:pawmkrhoij              0.329   0.0      0.329   0.0             40      -1.00        1.00       1.00
- pawinit                        0.323   0.0      0.323   0.0              2      -1.00        1.00       1.00
- stress                         0.234   0.0      0.234   0.0              1      -1.00        1.00       1.00
- ewald2 (+vdw_dftd)             0.216   0.0      0.216   0.0              1      -1.00        1.00       1.00
- timing timab                   0.135   0.0      0.135   0.0             10      -1.00        1.00       1.00
- symrhg(no FFT)                 0.105   0.0      0.105   0.0             40      -1.00        1.00       1.00
- vtowfk  (1)                    0.076   0.0      0.077   0.0             40      -1.00        1.00       1.00
- invars2                        0.072   0.0      0.072   0.0              1      -1.00        1.00       1.00
- abinit(2)                      0.050   0.0      0.050   0.0              1      -1.00        1.00       1.00
- forces                         0.039   0.0      0.039   0.0              1      -1.00        1.00       1.00
- nhatgrid                       0.038   0.0      0.038   0.0              2      -1.00        1.00       1.00
- newkpt(excl. rwwf   )          0.028   0.0      0.028   0.0             -1      -1.00        1.00       1.00
- prep_bandfft_tabs              0.015   0.0      0.015   0.0              2      -1.00        1.00       1.00
- setsym                         0.011   0.0      0.011   0.0              1      -1.00        1.00       1.00
- scfcv-scprqt                   0.003   0.0      0.003   0.0             40      -1.00        1.02       1.02
- others (105)                   0.000   0.0      0.000   0.0             -1      -1.00        1.01       1.01
-<END_TIMER>
-
- subtotal                    1108.014 135.3   1108.554 135.3                                  1.00       1.00

- For major independent code sections, cpu and wall times (sec),
- as well as % of the total time and number of calls 

-<BEGIN_TIMER mpi_nprocs = 2, omp_nthreads = 1, mpi_rank = world>
- cpu_time =         818.7, wall_time =         819.5
-
- routine                         cpu     %       wall     %      number of calls Gflops    Speedup Efficacity
-                                                                  (-1=no count)
- vtowfk(ssdiag)               771.509  94.2    772.108  94.2             -2      -1.00        1.00       1.00
- chebfiwf2                    771.486  94.2    772.085  94.2             84      -1.00        1.00       1.00
- nonlop(apply)                572.203  69.9    572.576  69.9           1092      -1.00        1.00       1.00
- fourwf%(pot)                  55.640   6.8     55.682   6.8            420      -1.00        1.00       1.00
- vtowfk(contrib)               15.935   1.9     15.946   1.9             80      -1.00        1.00       1.00
- mkrho/=                        7.012   0.9      7.017   0.9            160      -1.00        1.00       1.00
- pawdenpot                      4.387   0.5      4.391   0.5             80      -1.00        1.00       1.00
- pawmkrho                       2.811   0.3      2.813   0.3             80      -1.00        1.00       1.00
- pawdij/symdij                  2.474   0.3      2.475   0.3             80      -1.00        1.00       1.00
- pawmkrho:symrhoij              2.172   0.3      2.174   0.3             80      -1.00        1.00       1.00
- pspini                         1.600   0.2      1.600   0.2              2      -1.00        1.00       1.00
- fourdp                         1.136   0.1      1.155   0.1            732      -1.00        0.98       0.98
- getghc-other                   1.112   0.1      1.111   0.1             -2      -1.00        1.00       1.00
- ewald                          0.976   0.1      0.976   0.1              2      -1.00        1.00       1.00
- xc:pot/=fourdp                 0.720   0.1      0.721   0.1             82      -1.00        1.00       1.00
- vtorho:pawmkrhoij              0.658   0.1      0.658   0.1             80      -1.00        1.00       1.00
- pawinit                        0.648   0.1      0.648   0.1              4      -1.00        1.00       1.00
- stress                         0.471   0.1      0.471   0.1              2      -1.00        1.00       1.00
- ewald2 (+vdw_dftd)             0.436   0.1      0.436   0.1              2      -1.00        1.00       1.00
- timing timab                   0.272   0.0      0.272   0.0             20      -1.00        1.00       1.00
- symrhg(no FFT)                 0.212   0.0      0.212   0.0             80      -1.00        1.00       1.00
- vtowfk  (1)                    0.154   0.0      0.154   0.0             80      -1.00        1.00       1.00
- invars2                        0.144   0.0      0.144   0.0              2      -1.00        1.00       1.00
- abinit(2)                      0.099   0.0      0.100   0.0              2      -1.00        1.00       1.00
- nhatgrid                       0.077   0.0      0.077   0.0              4      -1.00        1.00       1.00
- forces                         0.077   0.0      0.077   0.0              2      -1.00        1.00       1.00
- newkpt(excl. rwwf   )          0.056   0.0      0.056   0.0             -2      -1.00        1.00       1.00
- prep_bandfft_tabs              0.031   0.0      0.031   0.0              4      -1.00        1.00       1.00
- setsym                         0.021   0.0      0.021   0.0              2      -1.00        1.00       1.00
- scfcv-scprqt                   0.018   0.0      0.018   0.0             80      -1.00        1.00       1.00
- others (105)                   0.000   0.0      0.000   0.0             -1      -1.00        1.01       1.01
-<END_TIMER>

- subtotal                    2214.546 270.5   2216.207 270.4                                  1.00       1.00

 Partitioning of abinit
- abinit                       818.656 100.0    819.498 100.0              2                   1.00       1.00
 
- abinit(4)                      0.281   0.0      0.314   0.0              2                   0.90       0.90
- driver                       818.016  99.9    818.826  99.9              2                   1.00       1.00
- timing timab                   0.272   0.0      0.272   0.0             20                   1.00       1.00

- subtotal                     818.656 100.0    819.498 100.0                                  1.00       1.00

 Partitioning of driver
- driver                       818.016  99.9    818.826  99.9              2                   1.00       1.00
 
- gstateimg                    818.010  99.9    818.819  99.9              2                   1.00       1.00

- subtotal                     818.016  99.9    818.826  99.9                                  1.00       1.00

 Partitioning of gstateimg+gstate
- gstateimg                    818.010  99.9    818.819  99.9              2                   1.00       1.00
 
- gstate(pspini)                 1.600   0.2      1.600   0.2              2                   1.00       1.00
- gstate  (2)                    0.427   0.1      0.444   0.1              2                   0.96       0.96
- gstate(...scfcv)             815.850  99.7    816.625  99.6              2                   1.00       1.00

- subtotal                     818.009  99.9    818.819  99.9                                  1.00       1.00

 Partitioning of scfcv_core
- scfcv_core                   815.849  99.7    816.625  99.6              2                   1.00       1.00
 
- scfcv_core(iniloop, setv       1.073   0.1      1.073   0.1             80                   1.00       1.00
- scfcv_core(loop, PAW)          6.879   0.8      6.884   0.8             80                   1.00       1.00
- scfcv_core(vtorho(f))        801.646  97.9    802.311  97.9             80                   1.00       1.00
- scfcv_core(mix den - new       0.870   0.1      0.871   0.1             78                   1.00       1.00
- scfcv_core(rhotov)             1.188   0.1      1.189   0.1             78                   1.00       1.00
- scfcv_core(afterscfloop)       4.126   0.5      4.128   0.5              2                   1.00       1.00

- subtotal                     815.849  99.7    816.625  99.6                                  1.00       1.00

 Partitioning of rhotov
- rhotov                         0.947   0.1      0.949   0.1             78                   1.00       1.00
 
- rhotov(rhotoxc)                0.699   0.1      0.700   0.1             78                   1.00       1.00
- (other)                        0.193   0.0      0.193   0.0             -1                   1.00       1.00

- subtotal                       0.947   0.1      0.949   0.1                                  1.00       1.00

 Partitioning of vtorho
- vtorho                       801.645  97.9    802.310  97.9             80                   1.00       1.00
 
- vtorho(bef. spin loop)         0.134   0.0      0.179   0.0             80                   0.75       0.75
- vtorho(bef. kpt  loop)         0.272   0.0      0.273   0.0             80                   1.00       1.00
- vtorho(bef. vtowfk)            1.063   0.1      1.064   0.1             80                   1.00       1.00
- vtowfk                       787.598  96.2    788.208  96.2             80                   1.00       1.00
- vtorho(newocc)                 1.639   0.2      1.641   0.2             80                   1.00       1.00
- vtorho(mkrho 1)                7.376   0.9      7.382   0.9             80                   1.00       1.00
- vtorho(mkrho 2)                3.518   0.4      3.521   0.4             80                   1.00       1.00
- mkinvovl                       1.041   0.1      1.041   0.1              2                   1.00       1.00

- subtotal                     801.645  97.9    802.310  97.9                                  1.00       1.00

 Partitioning of vtowfk
- vtowfk                       787.598  96.2    788.208  96.2             80                   1.00       1.00
 
- vtowfk(2)                    771.509  94.2    772.108  94.2             -2                   1.00       1.00
- prep_nonlop%vtowfk            15.645   1.9     15.656   1.9             80                   1.00       1.00
- vtowfk(3)                      0.290   0.0      0.290   0.0             -2                   1.00       1.00

- subtotal                     787.598  96.2    788.208  96.2                                  1.00       1.00

 Partitioning of getghc
- getghc                       444.661  54.3    444.953  54.3            420                   1.00       1.00
 
- fourwf%getghc                 55.640   6.8     55.682   6.8            420                   1.00       1.00
- nonlop%getghc                387.909  47.4    388.160  47.4            420                   1.00       1.00
- getghc-other                   1.112   0.1      1.111   0.1             -2                   1.00       1.00

- subtotal                     444.661  54.3    444.953  54.3                                  1.00       1.00

 Partitioning of fourwf (upwards partitioning)
- fourwf                        60.920   7.4     60.972   7.4           7036                   1.00       1.00
 
- fourwf%getghc                 55.640   6.8     55.682   6.8            420                   1.00       1.00
- fourwf%prep_four               5.279   0.6      5.290   0.6           6616                   1.00       1.00

- subtotal                      60.920   7.4     60.972   7.4                                  1.00       1.00

 Partitioning of prep_getghc
- prep_getghc                  450.461  55.0    450.763  55.0            420                   1.00       1.00
 
- prep_getghc(before if)         3.341   0.4      3.348   0.4            420                   1.00       1.00
- prep_getghc(getghc - 2 )     445.324  54.4    445.614  54.4            420                   1.00       1.00
- (other)                        1.796   0.2      1.801   0.2             -1                   1.00       1.00

- subtotal                     450.461  55.0    450.763  55.0                                  1.00       1.00

 Partitioning of prep_fourwf
- prep_fourwf                    5.854   0.7      5.858   0.7             80                   1.00       1.00
 
- fourwf%prep_four               5.279   0.6      5.290   0.6           6616                   1.00       1.00
- alltoall%prep_fo               0.358   0.0      0.359   0.0             80                   1.00       1.00

- subtotal                       5.637   0.7      5.648   0.7                                  1.00       1.00

 Partitioning of prep_nonlop
- prep_nonlop                  205.498  25.1    205.636  25.1            754                   1.00       1.00
 
- nonlop%prep_nonl%vtowfk       15.218   1.9     15.228   1.9             80                   1.00       1.00
- nonlop%prep_nonl%forstrn       3.420   0.4      3.421   0.4              2                   1.00       1.00
- prep_nonlop(alltoall)          0.228   0.0      0.228   0.0             82                   1.00       1.00
- (other)                      186.632  22.8    186.758  22.8             -1                   1.00       1.00

- subtotal                     205.498  25.1    205.636  25.1                                  1.00       1.00

 Partitioning of mkrho (upwards partitioning)
- mkrho                          7.375   0.9      7.381   0.9             80                   1.00       1.00
 
- mkrho%vtorho                   7.375   0.9      7.381   0.9             80                   1.00       1.00

- subtotal                       7.375   0.9      7.381   0.9                                  1.00       1.00

 Partitioning of inwffil
- inwffil                        0.057   0.0      0.057   0.0              2                   1.00       1.00
 

- subtotal                       0.057   0.0      0.057   0.0                                  1.00       1.00

 Partitioning of newkpt
- newkpt                         0.056   0.0      0.056   0.0              2                   1.00       1.00
 

- subtotal                       0.056   0.0      0.056   0.0                                  1.00       1.00

 Partitioning of newrho
- newrho                         0.869   0.1      0.870   0.1             78                   1.00       1.00
 
- fourdp%newrho                  0.290   0.0      0.291   0.0            156                   1.00       1.00

- subtotal                       0.290   0.0      0.291   0.0                                  1.00       1.00

 Partitioning of  fourdp (upwards partitioning)
- fourdp                         1.136   0.1      1.155   0.1            732                   0.98       0.98
 
- fourdp%(other)                 0.845   0.1      0.865   0.1            576                   0.98       0.98
- fourdp%newrho                  0.290   0.0      0.291   0.0            156                   1.00       1.00

- subtotal                       1.136   0.1      1.155   0.1                                  0.98       0.98

 Partitioning of afterscfloop
- afterscfloop                   4.126   0.5      4.128   0.5              2                   1.00       1.00
 
- afterscfloop(forstr)           4.123   0.5      4.125   0.5              2                   1.00       1.00

- subtotal                       4.126   0.5      4.128   0.5                                  1.00       1.00

 Partitioning of forstr
- forstr                         4.069   0.5      4.070   0.5              2                   1.00       1.00
 
- forstr(forstrnps)              3.495   0.4      3.496   0.4              2                   1.00       1.00
- forstr(stress)                 0.471   0.1      0.471   0.1              2                   1.00       1.00

- subtotal                       4.069   0.5      4.070   0.5                                  1.00       1.00

 Partitioning of forstrnps
- forstrnps                      3.495   0.4      3.496   0.4              2                   1.00       1.00
 
- forstrnps(nonlop+prep_ba       3.451   0.4      3.452   0.4              2                   1.00       1.00

- subtotal                       3.495   0.4      3.496   0.4                                  1.00       1.00

 Partitioning of outscfcv
- outscfcv                       0.015   0.0      0.116   0.0              2                   0.13       0.13
 

- subtotal                       0.008   0.0      0.088   0.0                                  0.09       0.09

 Partitioning of mkinvovl
- mkinvovl                       1.041   0.1      1.041   0.1              2                   1.00       1.00
 
- mkinvovl(build_ptp)            1.000   0.1      1.000   0.1              2                   1.00       1.00

- subtotal                       1.041   0.1      1.041   0.1                                  1.00       1.00

 Partitioning of low-level xgTransposer type
- xgTransposer_transpose@C       1.426   0.2      1.491   0.2            252                   0.96       0.96
 
- xgTransposer_transpose@L       1.154   0.1      1.155   0.1            252                   1.00       1.00
- xgTransposer_*@all2all         1.701   0.2      1.767   0.2            504                   0.96       0.96
- xgTransposer_@reorganize       0.867   0.1      0.869   0.1            504                   1.00       1.00
- xgTransposer_transpose         2.582   0.3      2.648   0.3            504                   0.98       0.98

- subtotal                       6.413   0.8      6.550   0.8                                  0.98       0.98

 Partitioning of chebfiwf2 core engine
- chebfiwf2                    771.486  94.2    772.085  94.2             84                   1.00       1.00
 
- chebfi2_run                  771.380  94.2    771.978  94.2             84                   1.00       1.00
- chebfi2_getAX_BX             450.469  55.0    450.768  55.0            420                   1.00       1.00
- chebfi2_invovl               285.325  34.9    285.519  34.8            336                   1.00       1.00
- chebfi2_residu                 0.350   0.0      0.351   0.0             84                   1.00       1.00
- chebfi2_RayleighRitz          25.054   3.1     25.073   3.1             84                   1.00       1.00
- chebfi2_RR_q                   0.196   0.0      0.197   0.0             84                   1.00       1.00
- chebfi2_next_p               286.705  35.0    286.901  35.0            336                   1.00       1.00
- chebfi2_amp_f                  0.214   0.0      0.215   0.0             84                   1.00       1.00

- subtotal                    1819.906 222.3   1821.216 222.2                                  1.00       1.00
-
-Synchronisation (=leave_test) and MPI calls 
- communic.MPI                   1.177   0.1      1.178   0.1            970                   1.00       1.00
-
- forstrnps:synchr               0.000   0.0      0.000   0.0              4                   4.27       4.27
- mkrho :MPIrhor                 0.000   0.0      0.000   0.0             80                   1.05       1.05
- subtotal                       0.000   0.0      0.000   0.0                                  1.16       1.16

 Additional information
- timana(1)                      0.000   0.0      0.000   0.0              2                   1.10       1.10
- total timab                    0.367   0.0      0.367   0.0         103731                   1.00       1.00
- fourwf                        60.920   7.4     60.972   7.4           7036                   1.00       1.00
- newocc                         1.639   0.2      1.640   0.2             80                   1.00       1.00
- nonlop(total)                590.841  72.2    591.226  72.1           1174                   1.00       1.00

 Additional information about PAW segments
- forces:pawatm2ff               0.043   0.0      0.043   0.0              2                   1.00       1.00
- stress:pawatm2ff               0.032   0.0      0.032   0.0              2                   1.00       1.00
- setvtr:pawatm2ff               0.039   0.0      0.039   0.0              2                   1.00       1.00
- pawinit                        0.648   0.1      0.648   0.1              4                   1.00       1.00
- vtowfk:rhoij                  15.646   1.9     15.656   1.9             80                   1.00       1.00
- vtorho:pawmkrhoij              0.658   0.1      0.658   0.1             80                   1.00       1.00
- pawmkrho                       2.811   0.3      2.813   0.3             80                   1.00       1.00
- scfcv_core:mknhat              0.247   0.0      0.247   0.0             80                   1.00       1.00
- nhatgrid                       0.077   0.0      0.077   0.0              4                   1.00       1.00
- pawdenpot                      4.387   0.5      4.391   0.5             80                   1.00       1.00
- pawdij/symdij                  2.474   0.3      2.475   0.3             80                   1.00       1.00


 Detailed analysis of some time consuming routines 
                                  tcpu    ncalls  tcpu/ncalls    ndata tcpu/ncalls/ndata
                                 (sec)                (msec)              (microsec)
- fourwf%(pot)                  55.640       420     132.477    128000       1.035
- fourwf%(den)                   0.000         0
- fourdp                         1.136       732       1.551     64000       0.024
- nonlop(apply)                572.203      1092     523.995     60264       8.695
- nonlop(forces)                 0.000         0
- nonlop(forstr)                 0.000         0
- projbd                         0.000         0
- xc:pot/=fourdp                 0.720        82       8.783     64000       0.137

================================================================================

 Suggested references for the acknowledgment of ABINIT usage.

 The users of ABINIT have little formal obligations with respect to the ABINIT group
 (those specified in the GNU General Public License, http://www.gnu.org/copyleft/gpl.txt).
 However, it is common practice in the scientific literature,
 to acknowledge the efforts of people that have made the research possible.
 In this spirit, please find below suggested citations of work written by ABINIT developers,
 corresponding to implementations inside of ABINIT that you have used in the present run.
 Note also that it will be of great value to readers of publications presenting these results,
 to read papers enabling them to understand the theoretical formalism and details
 of the ABINIT implementation.
 For information on why they are suggested, see also https://docs.abinit.org/theory/acknowledgments.
-
- [1] Implementation of the Projector Augmented-Wave Method in the ABINIT code.
- M. Torrent, F. Jollet, F. Bottin, G. Zerah, and X. Gonze Comput. Mat. Science 42, 337, (2008).
- Comment : PAW calculations. Strong suggestion to cite this paper.
- DOI and bibtex : see https://docs.abinit.org/theory/bibliography/#torrent2008
-
- [2] Recent developments in the ABINIT software package.
- Computer Phys. Comm. 205, 106 (2016).
- X.Gonze, F.Jollet, F.Abreu Araujo, D.Adams, B.Amadon, T.Applencourt,
- C.Audouze, J.-M.Beuken, J.Bieder, A.Bokhanchuk, E.Bousquet, F.Bruneval
- D.Caliste, M.Cote, F.Dahm, F.Da Pieve, M.Delaveau, M.Di Gennaro,
- B.Dorado, C.Espejo, G.Geneste, L.Genovese, A.Gerossier, M.Giantomassi,
- Y.Gillet, D.R.Hamann, L.He, G.Jomard, J.Laflamme Janssen, S.Le Roux,
- A.Levitt, A.Lherbier, F.Liu, I.Lukacevic, A.Martin, C.Martins,
- M.J.T.Oliveira, S.Ponce, Y.Pouillon, T.Rangel, G.-M.Rignanese,
- A.H.Romero, B.Rousseau, O.Rubel, A.A.Shukri, M.Stankovski, M.Torrent,
- M.J.Van Setten, B.Van Troeye, M.J.Verstraete, D.Waroquier, J.Wiktor,
- B.Xu, A.Zhou, J.W.Zwanziger.
- Comment : the fourth generic paper describing the ABINIT project.
- Note that a version of this paper, that is not formatted for Computer Phys. Comm. 
- is available at https://www.abinit.org/about/ABINIT16.pdf .
- The licence allows the authors to put it on the Web.
- DOI and bibtex : see https://docs.abinit.org/theory/bibliography/#gonze2016
-
- [3] ABINIT : First-principles approach of materials and nanosystem properties.
- Computer Phys. Comm. 180, 2582-2615 (2009).
- X. Gonze, B. Amadon, P.-M. Anglade, J.-M. Beuken, F. Bottin, P. Boulanger, F. Bruneval,
- D. Caliste, R. Caracas, M. Cote, T. Deutsch, L. Genovese, Ph. Ghosez, M. Giantomassi
- S. Goedecker, D.R. Hamann, P. Hermet, F. Jollet, G. Jomard, S. Leroux, M. Mancini, S. Mazevet,
- M.J.T. Oliveira, G. Onida, Y. Pouillon, T. Rangel, G.-M. Rignanese, D. Sangalli, R. Shaltaf,
- M. Torrent, M.J. Verstraete, G. Zerah, J.W. Zwanziger
- Comment : the third generic paper describing the ABINIT project.
- Note that a version of this paper, that is not formatted for Computer Phys. Comm. 
- is available at https://www.abinit.org/about/ABINIT_CPC_v10.pdf .
- The licence allows the authors to put it on the Web.
- DOI and bibtex : see https://docs.abinit.org/theory/bibliography/#gonze2009
-
- [4] A brief introduction to the ABINIT software package.
- Z. Kristallogr. 220, 558-562 (2005).
- X. Gonze, G.-M. Rignanese, M. Verstraete, J.-M. Beuken, Y. Pouillon, R. Caracas, F. Jollet,
- M. Torrent, G. Zerah, M. Mikami, Ph. Ghosez, M. Veithen, J.-Y. Raty, V. Olevano, F. Bruneval,
- L. Reining, R. Godby, G. Onida, D.R. Hamann, and D.C. Allan.
- Comment : the second generic paper describing the ABINIT project. Note that this paper
- should be cited especially if you are using the GW part of ABINIT, as several authors
- of this part are not in the list of authors of the first or third paper.
- The .pdf of the latter paper is available at https://www.abinit.org/about/zfk_0505-06_558-562.pdf.
- Note that it should not redistributed (Copyright by Oldenburg Wissenshaftverlag,
- the licence allows the authors to put it on the Web).
- DOI and bibtex : see https://docs.abinit.org/theory/bibliography/#gonze2005
-
- And optionally:
-
- [5] First-principles computation of material properties : the ABINIT software project. 
- X. Gonze, J.-M. Beuken, R. Caracas, F. Detraux, M. Fuchs, G.-M. Rignanese, L. Sindic,
- M. Verstraete, G. Zerah, F. Jollet, M. Torrent, A. Roy, M. Mikami, Ph. Ghosez, J.-Y. Raty, D.C. Allan.
- Computational Materials Science 25, 478-492 (2002). http://dx.doi.org/10.1016/S0927-0256(02)00325-7
- Comment : the original paper describing the ABINIT project.
- DOI and bibtex : see https://docs.abinit.org/theory/bibliography/#gonze2002
-
- Proc.   0 individual time (sec): cpu=        409.4  wall=        409.8
 
================================================================================
 
 Calculation completed.
.Delivered   3 WARNINGs and   0 COMMENTs to log file.
+Overall time at end (sec) : cpu=        818.7  wall=        819.6
