
.Version 8.11.8 of ABINIT 
.(MPI version, prepared for a x86_64_linux_intel19.0 computer) 

.Copyright (C) 1998-2019 ABINIT group . 
 ABINIT comes with ABSOLUTELY NO WARRANTY.
 It is free software, and you are welcome to redistribute it
 under certain conditions (GNU General Public License,
 see ~abinit/COPYING or http://www.gnu.org/copyleft/gpl.txt).

 ABINIT is a project of the Universite Catholique de Louvain,
 Corning Inc. and other collaborators, see ~abinit/doc/developers/contributors.txt .
 Please read https://docs.abinit.org/theory/acknowledgments for suggested
 acknowledgments of the ABINIT effort.
 For more information, see https://www.abinit.org .

.Starting date : Mon 17 Jun 2019.
- ( at 13h41 )
  
- input  file    -> t03.in
- output file    -> t03_x.out
- root for input  files -> t03_xi
- root for output files -> t03_xo
 
- inpspheads : Reading pseudopotential header in XML form from ../../../Psps_for_tests/ba.hpc.paw.xml
 
 Symmetries : space group Pm -3 m (#221); Bravais cP (primitive cubic)
================================================================================
 Values of the parameters that define the memory need of the present run
     intxc =       0    ionmov =       0      iscf =      17    lmnmax =      18
     lnmax =       6     mgfft =      40  mpssoang =       3    mqgrid =    3001
     natom =      31  nloc_mem =       2    nspden =       1   nspinor =       1
    nsppol =       1      nsym =      48    n1xccc =       1    ntypat =       1
    occopt =       3   xclevel =       1
-    mband =         192        mffmem =           1         mkmem =           1
       mpw =        3887          nfft =       64000          nkpt =           1
 PAW method is used; the additional fine FFT grid is defined by:
   mgfftf=        45    nfftf =     91125
================================================================================
P This job should need less than                      80.870 Mbytes of memory.
  Rough estimation (10% accuracy) of disk space for files :
_ WF disk file :     11.390 Mbytes ; DEN or POT disk file :      0.697 Mbytes.
================================================================================
 
--------------------------------------------------------------------------------
------------- Echo of variables that govern the present computation ------------
--------------------------------------------------------------------------------
-
- outvars: echo of selected default values                                      
-   iomode0 =  0 , fftalg0 =312 , wfoptalg0 = 10
-
- outvars: echo of global parameters not present in the input file              
-  max_nthreads =   12
-
 -outvars: echo values of preprocessed input variables --------
            acell      1.5340000000E+01  1.5340000000E+01  1.5340000000E+01 Bohr
              amu      1.37327000E+02
           bandpp         192
      chksymbreak           0
             ecut      8.00000000E+00 Hartree
-          fftalg         312
           istwfk        1
              ixc           7
           kptopt           0
P           mkmem           1
            natom          31
            nband         192
            ngfft          40      40      40
          ngfftdg          45      45      45
             nkpt           1
            nstep          40
             nsym          48
           ntypat           1
              occ      2.000000  2.000000  2.000000  2.000000  2.000000  2.000000
                       2.000000  2.000000  2.000000  2.000000  2.000000  2.000000
                       2.000000  2.000000  2.000000  2.000000  2.000000  2.000000
                       2.000000  2.000000  2.000000  2.000000  2.000000  2.000000
                       2.000000  2.000000  2.000000  2.000000  2.000000  2.000000
                       2.000000  2.000000  2.000000  2.000000  2.000000  2.000000
                       2.000000  2.000000  2.000000  2.000000  2.000000  2.000000
                       2.000000  2.000000  2.000000  2.000000  2.000000  2.000000
                       2.000000  2.000000  2.000000  2.000000  2.000000  2.000000
                       2.000000  2.000000  2.000000  2.000000  2.000000  2.000000
                       2.000000  2.000000  2.000000  2.000000  2.000000  2.000000
                       2.000000  2.000000  2.000000  2.000000  2.000000  2.000000
                       2.000000  2.000000  2.000000  2.000000  2.000000  2.000000
                       2.000000  2.000000  2.000000  2.000000  2.000000  2.000000
                       2.000000  2.000000  2.000000  2.000000  2.000000  2.000000
                       2.000000  2.000000  2.000000  2.000000  2.000000  2.000000
                       2.000000  2.000000  2.000000  2.000000  2.000000  2.000000
                       2.000000  2.000000  2.000000  2.000000  2.000000  2.000000
                       2.000000  2.000000  2.000000  2.000000  2.000000  2.000000
                       2.000000  2.000000  2.000000  2.000000  2.000000  2.000000
                       2.000000  2.000000  2.000000  2.000000  2.000000  2.000000
                       2.000000  2.000000  2.000000  2.000000  2.000000  2.000000
                       2.000000  2.000000  2.000000  2.000000  2.000000  2.000000
                       2.000000  2.000000  2.000000  2.000000  2.000000  2.000000
                       2.000000  2.000000  2.000000  2.000000  2.000000  2.000000
                       2.000000  2.000000  2.000000  2.000000  2.000000  0.000000
                       0.000000  0.000000  0.000000  0.000000  0.000000  0.000000
                       0.000000  0.000000  0.000000  0.000000  0.000000  0.000000
                       0.000000  0.000000  0.000000  0.000000  0.000000  0.000000
                       0.000000  0.000000  0.000000  0.000000  0.000000  0.000000
                       0.000000  0.000000  0.000000  0.000000  0.000000  0.000000
                       0.000000  0.000000  0.000000  0.000000  0.000000  0.000000
           occopt           3
        pawecutdg      1.00000000E+01 Hartree
           prtden           0
           prteig           0
            prtwf           0
          spgroup         221
           symrel      1  0  0   0  1  0   0  0  1      -1  0  0   0 -1  0   0  0 -1
                      -1  0  0   0  1  0   0  0 -1       1  0  0   0 -1  0   0  0  1
                      -1  0  0   0 -1  0   0  0  1       1  0  0   0  1  0   0  0 -1
                       1  0  0   0 -1  0   0  0 -1      -1  0  0   0  1  0   0  0  1
                       0  1  0   1  0  0   0  0  1       0 -1  0  -1  0  0   0  0 -1
                       0 -1  0   1  0  0   0  0 -1       0  1  0  -1  0  0   0  0  1
                       0 -1  0  -1  0  0   0  0  1       0  1  0   1  0  0   0  0 -1
                       0  1  0  -1  0  0   0  0 -1       0 -1  0   1  0  0   0  0  1
                       0  0  1   1  0  0   0  1  0       0  0 -1  -1  0  0   0 -1  0
                       0  0 -1   1  0  0   0 -1  0       0  0  1  -1  0  0   0  1  0
                       0  0 -1  -1  0  0   0  1  0       0  0  1   1  0  0   0 -1  0
                       0  0  1  -1  0  0   0 -1  0       0  0 -1   1  0  0   0  1  0
                       1  0  0   0  0  1   0  1  0      -1  0  0   0  0 -1   0 -1  0
                      -1  0  0   0  0  1   0 -1  0       1  0  0   0  0 -1   0  1  0
                      -1  0  0   0  0 -1   0  1  0       1  0  0   0  0  1   0 -1  0
                       1  0  0   0  0 -1   0 -1  0      -1  0  0   0  0  1   0  1  0
                       0  1  0   0  0  1   1  0  0       0 -1  0   0  0 -1  -1  0  0
                       0 -1  0   0  0  1  -1  0  0       0  1  0   0  0 -1   1  0  0
                       0 -1  0   0  0 -1   1  0  0       0  1  0   0  0  1  -1  0  0
                       0  1  0   0  0 -1  -1  0  0       0 -1  0   0  0  1   1  0  0
                       0  0  1   0  1  0   1  0  0       0  0 -1   0 -1  0  -1  0  0
                       0  0 -1   0  1  0  -1  0  0       0  0  1   0 -1  0   1  0  0
                       0  0 -1   0 -1  0   1  0  0       0  0  1   0  1  0  -1  0  0
                       0  0  1   0 -1  0  -1  0  0       0  0 -1   0  1  0   1  0  0
           timopt          -3
           toldfe      1.00000000E-05 Hartree
           tsmear      2.00000000E-03 Hartree
            typat      1  1  1  1  1  1  1  1  1  1  1  1  1  1  1  1  1  1  1  1
                       1  1  1  1  1  1  1  1  1  1  1
           useylm           1
         wfoptalg         111
           xangst      2.0293945949E+00  2.0293945949E+00  0.0000000000E+00
                       2.0293945949E+00  0.0000000000E+00  2.0293945949E+00
                       0.0000000000E+00  2.0293945949E+00  2.0293945949E+00
                       0.0000000000E+00  0.0000000000E+00  4.0587891899E+00
                       2.0293945949E+00  2.0293945949E+00  4.0587891899E+00
                       2.0293945949E+00  0.0000000000E+00  6.0881837848E+00
                       0.0000000000E+00  2.0293945949E+00  6.0881837848E+00
                       0.0000000000E+00  4.0587891899E+00  0.0000000000E+00
                       2.0293945949E+00  6.0881837848E+00  0.0000000000E+00
                       2.0293945949E+00  4.0587891899E+00  2.0293945949E+00
                       0.0000000000E+00  6.0881837848E+00  2.0293945949E+00
                       0.0000000000E+00  4.0587891899E+00  4.0587891899E+00
                       2.0293945949E+00  6.0881837848E+00  4.0587891899E+00
                       2.0293945949E+00  4.0587891899E+00  6.0881837848E+00
                       0.0000000000E+00  6.0881837848E+00  6.0881837848E+00
                       4.0587891899E+00  0.0000000000E+00  0.0000000000E+00
                       6.0881837848E+00  2.0293945949E+00  0.0000000000E+00
                       6.0881837848E+00  0.0000000000E+00  2.0293945949E+00
                       4.0587891899E+00  2.0293945949E+00  2.0293945949E+00
                       4.0587891899E+00  0.0000000000E+00  4.0587891899E+00
                       6.0881837848E+00  2.0293945949E+00  4.0587891899E+00
                       6.0881837848E+00  0.0000000000E+00  6.0881837848E+00
                       4.0587891899E+00  2.0293945949E+00  6.0881837848E+00
                       4.0587891899E+00  4.0587891899E+00  0.0000000000E+00
                       6.0881837848E+00  6.0881837848E+00  0.0000000000E+00
                       6.0881837848E+00  4.0587891899E+00  2.0293945949E+00
                       4.0587891899E+00  6.0881837848E+00  2.0293945949E+00
                       4.0587891899E+00  4.0587891899E+00  4.0587891899E+00
                       6.0881837848E+00  6.0881837848E+00  4.0587891899E+00
                       6.0881837848E+00  4.0587891899E+00  6.0881837848E+00
                       4.0587891899E+00  6.0881837848E+00  6.0881837848E+00
            xcart      3.8350000000E+00  3.8350000000E+00  0.0000000000E+00
                       3.8350000000E+00  0.0000000000E+00  3.8350000000E+00
                       0.0000000000E+00  3.8350000000E+00  3.8350000000E+00
                       0.0000000000E+00  0.0000000000E+00  7.6700000000E+00
                       3.8350000000E+00  3.8350000000E+00  7.6700000000E+00
                       3.8350000000E+00  0.0000000000E+00  1.1505000000E+01
                       0.0000000000E+00  3.8350000000E+00  1.1505000000E+01
                       0.0000000000E+00  7.6700000000E+00  0.0000000000E+00
                       3.8350000000E+00  1.1505000000E+01  0.0000000000E+00
                       3.8350000000E+00  7.6700000000E+00  3.8350000000E+00
                       0.0000000000E+00  1.1505000000E+01  3.8350000000E+00
                       0.0000000000E+00  7.6700000000E+00  7.6700000000E+00
                       3.8350000000E+00  1.1505000000E+01  7.6700000000E+00
                       3.8350000000E+00  7.6700000000E+00  1.1505000000E+01
                       0.0000000000E+00  1.1505000000E+01  1.1505000000E+01
                       7.6700000000E+00  0.0000000000E+00  0.0000000000E+00
                       1.1505000000E+01  3.8350000000E+00  0.0000000000E+00
                       1.1505000000E+01  0.0000000000E+00  3.8350000000E+00
                       7.6700000000E+00  3.8350000000E+00  3.8350000000E+00
                       7.6700000000E+00  0.0000000000E+00  7.6700000000E+00
                       1.1505000000E+01  3.8350000000E+00  7.6700000000E+00
                       1.1505000000E+01  0.0000000000E+00  1.1505000000E+01
                       7.6700000000E+00  3.8350000000E+00  1.1505000000E+01
                       7.6700000000E+00  7.6700000000E+00  0.0000000000E+00
                       1.1505000000E+01  1.1505000000E+01  0.0000000000E+00
                       1.1505000000E+01  7.6700000000E+00  3.8350000000E+00
                       7.6700000000E+00  1.1505000000E+01  3.8350000000E+00
                       7.6700000000E+00  7.6700000000E+00  7.6700000000E+00
                       1.1505000000E+01  1.1505000000E+01  7.6700000000E+00
                       1.1505000000E+01  7.6700000000E+00  1.1505000000E+01
                       7.6700000000E+00  1.1505000000E+01  1.1505000000E+01
             xred      2.5000000000E-01  2.5000000000E-01  0.0000000000E+00
                       2.5000000000E-01  0.0000000000E+00  2.5000000000E-01
                       0.0000000000E+00  2.5000000000E-01  2.5000000000E-01
                       0.0000000000E+00  0.0000000000E+00  5.0000000000E-01
                       2.5000000000E-01  2.5000000000E-01  5.0000000000E-01
                       2.5000000000E-01  0.0000000000E+00  7.5000000000E-01
                       0.0000000000E+00  2.5000000000E-01  7.5000000000E-01
                       0.0000000000E+00  5.0000000000E-01  0.0000000000E+00
                       2.5000000000E-01  7.5000000000E-01  0.0000000000E+00
                       2.5000000000E-01  5.0000000000E-01  2.5000000000E-01
                       0.0000000000E+00  7.5000000000E-01  2.5000000000E-01
                       0.0000000000E+00  5.0000000000E-01  5.0000000000E-01
                       2.5000000000E-01  7.5000000000E-01  5.0000000000E-01
                       2.5000000000E-01  5.0000000000E-01  7.5000000000E-01
                       0.0000000000E+00  7.5000000000E-01  7.5000000000E-01
                       5.0000000000E-01  0.0000000000E+00  0.0000000000E+00
                       7.5000000000E-01  2.5000000000E-01  0.0000000000E+00
                       7.5000000000E-01  0.0000000000E+00  2.5000000000E-01
                       5.0000000000E-01  2.5000000000E-01  2.5000000000E-01
                       5.0000000000E-01  0.0000000000E+00  5.0000000000E-01
                       7.5000000000E-01  2.5000000000E-01  5.0000000000E-01
                       7.5000000000E-01  0.0000000000E+00  7.5000000000E-01
                       5.0000000000E-01  2.5000000000E-01  7.5000000000E-01
                       5.0000000000E-01  5.0000000000E-01  0.0000000000E+00
                       7.5000000000E-01  7.5000000000E-01  0.0000000000E+00
                       7.5000000000E-01  5.0000000000E-01  2.5000000000E-01
                       5.0000000000E-01  7.5000000000E-01  2.5000000000E-01
                       5.0000000000E-01  5.0000000000E-01  5.0000000000E-01
                       7.5000000000E-01  7.5000000000E-01  5.0000000000E-01
                       7.5000000000E-01  5.0000000000E-01  7.5000000000E-01
                       5.0000000000E-01  7.5000000000E-01  7.5000000000E-01
            znucl       56.00000
 
================================================================================
 
 chkinp: Checking input parameters for consistency.
 
================================================================================
== DATASET  1 ==================================================================
-   nproc =    1
 
 Exchange-correlation functional for the present dataset will be:
  LDA: Perdew-Wang 92 LSD fit to Ceperley-Alder data - ixc=7
 Citation for XC functional:
  J.P.Perdew and Y.Wang, PRB 45, 13244 (1992)
 
 Real(R)+Recip(G) space primitive vectors, cartesian coordinates (Bohr,Bohr^-1):
 R(1)= 15.3400000  0.0000000  0.0000000  G(1)=  0.0651890  0.0000000  0.0000000
 R(2)=  0.0000000 15.3400000  0.0000000  G(2)=  0.0000000  0.0651890  0.0000000
 R(3)=  0.0000000  0.0000000 15.3400000  G(3)=  0.0000000  0.0000000  0.0651890
 Unit cell volume ucvol=  3.6097413E+03 bohr^3
 Angles (23,13,12)=  9.00000000E+01  9.00000000E+01  9.00000000E+01 degrees
 
 Coarse grid specifications (used for wave-functions):
 
 getcut: wavevector=  0.0000  0.0000  0.0000  ngfft=  40  40  40
         ecut(hartree)=      8.000   => boxcut(ratio)=   2.04797
 
 Fine grid specifications (used for densities):
 
 getcut: wavevector=  0.0000  0.0000  0.0000  ngfft=  45  45  45
         ecut(hartree)=     10.000   => boxcut(ratio)=   2.01494
 
--- Pseudopotential description ------------------------------------------------
- pspini: atom type   1  psp file is ../../../Psps_for_tests/ba.hpc.paw.xml
- pspatm: opening atomic psp file    ../../../Psps_for_tests/ba.hpc.paw.xml
- pspatm : Reading pseudopotential header in XML form from ../../../Psps_for_tests/ba.hpc.paw.xml
 Pseudopotential format is: paw10
 basis_size (lnmax)=  6 (lmn_size= 18), orbitals=   0   0   1   1   2   2
 Spheres core radius: rc_sph= 2.31518568
 1 radial meshes are used:
  - mesh 1: r(i)=AA*[exp(BB*(i-1))-1], size=1500 , AA= 0.15658E-03 BB= 0.87685E-02
 Shapefunction is SIN type: shapef(r)=[sin(pi*r/rshp)/(pi*r/rshp)]**2
 Radius for shape functions =  2.01210979
 mmax= 1500
 Radial grid used for partial waves is grid 1
 Radial grid used for projectors is grid 1
 Radial grid used for (t)core density is grid 1
 Radial grid used for Vloc is grid 1
 Radial grid used for pseudo valence density is grid 1
 Mesh size for Vloc has been set to 1341 to avoid numerical noise.
 Compensation charge density is not taken into account in XC energy/potential
 pspatm: atomic psp has been read  and splines computed
 
   5.70955898E+05                                ecore*ucvol(ha*bohr**3)
--------------------------------------------------------------------------------
 
_setup2: Arith. and geom. avg. npw (full set) are    3887.000    3887.000
 
================================================================================
 
     iter   Etot(hartree)      deltaE(h)  residm     nres2
 ETOT  1  -798.94035765362    -7.989E+02 2.033E+00 1.384E+01
 ETOT  2  -800.09506246438    -1.155E+00 5.785E-01 6.513E-01
 ETOT  3  -799.91936151838     1.757E-01 1.100E+01 5.004E-02
 ETOT  4  -800.33853182933    -4.192E-01 1.416E-01 1.497E-01
 ETOT  5  -800.30992786517     2.860E-02 7.838E+00 6.230E-02
 ETOT  6  -800.39426229763    -8.433E-02 9.605E-01 5.195E-02
 ETOT  7  -800.37011593229     2.415E-02 1.129E+01 1.340E-02
 ETOT  8  -800.41845028529    -4.833E-02 1.426E-01 1.391E-02
 ETOT  9  -800.41568133756     2.769E-03 7.947E+00 1.010E-02
 ETOT 10  -800.42401887735    -8.338E-03 9.672E-01 4.010E-03
 ETOT 11  -800.42150437900     2.514E-03 1.142E+01 2.385E-03
 ETOT 12  -800.42627448020    -4.770E-03 1.404E-01 5.483E-04
 ETOT 13  -800.42597723732     2.972E-04 7.957E+00 1.517E-04
 ETOT 14  -800.42679245376    -8.152E-04 9.865E-01 1.193E-04
 ETOT 15  -800.42653401980     2.584E-04 1.146E+01 2.253E-05
 ETOT 16  -800.42701250275    -4.785E-04 1.412E-01 3.348E-05
 ETOT 17  -800.42698039099     3.211E-05 7.998E+00 1.191E-05
 ETOT 18  -800.42706162944    -8.124E-05 9.787E-01 7.582E-06
 ETOT 19  -800.42703430737     2.732E-05 1.149E+01 7.722E-07
 ETOT 20  -800.42708302956    -4.872E-05 1.402E-01 1.537E-06
 ETOT 21  -800.42707965851     3.371E-06 7.981E+00 6.115E-07
 ETOT 22  -800.42708788258    -8.224E-06 9.925E-01 6.242E-07
 
 At SCF step   22, etot is converged : 
  for the second time, diff in etot=  8.224E-06 < toldfe=  1.000E-05
 
 Cartesian components of stress tensor (hartree/bohr^3)
  sigma(1 1)= -4.33618473E-03  sigma(3 2)=  0.00000000E+00
  sigma(2 2)= -4.33618473E-03  sigma(3 1)=  0.00000000E+00
  sigma(3 3)= -4.33618473E-03  sigma(2 1)=  0.00000000E+00
 
 Integrated electronic density in atomic spheres:
 ------------------------------------------------
 Atom  Sphere_radius  Integrated_density
    1        2.31519          7.04701001
    2        2.31519          7.04701001
    3        2.31519          7.04701001
    4        2.31519          6.96785339
    5        2.31519          7.10077592
    6        2.31519          7.04701001
    7        2.31519          7.04701001
    8        2.31519          6.96785339
    9        2.31519          7.04701001
   10        2.31519          7.10077592
   11        2.31519          7.04701001
   12        2.31519          7.03236341
   13        2.31519          7.10077592
   14        2.31519          7.10077592
   15        2.31519          7.04701001
   16        2.31519          6.96785339
   17        2.31519          7.04701001
   18        2.31519          7.04701001
   19        2.31519          7.10077592
   20        2.31519          7.03236341
   21        2.31519          7.10077592
   22        2.31519          7.04701001
   23        2.31519          7.10077592
   24        2.31519          7.03236341
   25        2.31519          7.04701001
   26        2.31519          7.10077592
   27        2.31519          7.10077592
   28        2.31519          7.11121836
   29        2.31519          7.10077592
   30        2.31519          7.10077592
   31        2.31519          7.10077592
 
 PAW TEST:
 ==== Compensation charge inside spheres ============
 The following values must be close to each other ...
 Compensation charge over spherical meshes =    -83.806019234580873
 Compensation charge over fine fft grid    =    -83.807319766448998
 
 ==== Results concerning PAW augmentation regions ====
 
 Total pseudopotential strength Dij (hartree):
 Atom #  1
   0.41421   0.06332   0.00046   0.00000   0.00046   0.00011   0.00000   0.00011  -0.00012   0.00000   0.00003   0.00000 ...
   0.06332   0.00885   0.00010   0.00000   0.00010   0.00008   0.00000   0.00008  -0.00003   0.00000   0.00001   0.00000 ...
   0.00046   0.00010  -0.17381   0.00000  -0.00017   0.00055   0.00000  -0.00008   0.00018   0.00000  -0.00009   0.00000 ...
   0.00000   0.00000   0.00000  -0.17373   0.00000   0.00000   0.00062   0.00000   0.00000   0.00009   0.00000   0.00009 ...
   0.00046   0.00010  -0.00017   0.00000  -0.17381  -0.00008   0.00000   0.00055   0.00018   0.00000  -0.00009   0.00000 ...
   0.00011   0.00008   0.00055   0.00000  -0.00008  -1.14548   0.00000  -0.00024   0.00017   0.00000  -0.00008   0.00000 ...
   0.00000   0.00000   0.00000   0.00062   0.00000   0.00000  -1.14528   0.00000   0.00000   0.00007   0.00000   0.00007 ...
   0.00011   0.00008  -0.00008   0.00000   0.00055  -0.00024   0.00000  -1.14548   0.00017   0.00000  -0.00008   0.00000 ...
  -0.00012  -0.00003   0.00018   0.00000   0.00018   0.00017   0.00000   0.00017  -0.03054   0.00000   0.00002   0.00000 ...
   0.00000   0.00000   0.00000   0.00009   0.00000   0.00000   0.00007   0.00000   0.00000  -0.03053   0.00000  -0.00002 ...
   0.00003   0.00001  -0.00009   0.00000  -0.00009  -0.00008   0.00000  -0.00008   0.00002   0.00000  -0.03055   0.00000 ...
   0.00000   0.00000   0.00000   0.00009   0.00000   0.00000   0.00007   0.00000   0.00000  -0.00002   0.00000  -0.03053 ...
   ...  only 12  components have been written...
 Atom # 31
   0.41593   0.06360   0.00017   0.00017   0.00000  -0.00007  -0.00007   0.00000   0.00000  -0.00006  -0.00001   0.00000 ...
   0.06360   0.00890   0.00003   0.00003   0.00000  -0.00000  -0.00000   0.00000   0.00000  -0.00001  -0.00000   0.00000 ...
   0.00017   0.00003  -0.17307  -0.00008   0.00000   0.00077  -0.00004   0.00000   0.00000   0.00003  -0.00001   0.00000 ...
   0.00017   0.00003  -0.00008  -0.17307   0.00000  -0.00004   0.00077   0.00000   0.00000   0.00003   0.00003   0.00000 ...
   0.00000   0.00000   0.00000   0.00000  -0.17300   0.00000   0.00000   0.00083   0.00002   0.00000   0.00000   0.00002 ...
  -0.00007  -0.00000   0.00077  -0.00004   0.00000  -1.14463  -0.00010   0.00000   0.00000   0.00001   0.00001   0.00000 ...
  -0.00007  -0.00000  -0.00004   0.00077   0.00000  -0.00010  -1.14463   0.00000   0.00000   0.00001  -0.00000   0.00000 ...
   0.00000   0.00000   0.00000   0.00000   0.00083   0.00000   0.00000  -1.14454  -0.00001   0.00000   0.00000  -0.00001 ...
   0.00000   0.00000   0.00000   0.00000   0.00002   0.00000   0.00000  -0.00001  -0.03040   0.00000   0.00000  -0.00001 ...
  -0.00006  -0.00001   0.00003   0.00003   0.00000   0.00001   0.00001   0.00000   0.00000  -0.03042  -0.00001   0.00000 ...
  -0.00001  -0.00000  -0.00001   0.00003   0.00000   0.00001  -0.00000   0.00000   0.00000  -0.00001  -0.03044   0.00000 ...
   0.00000   0.00000   0.00000   0.00000   0.00002   0.00000   0.00000  -0.00001  -0.00001   0.00000   0.00000  -0.03040 ...
   ...  only 12  components have been written...
 
 
 Augmentation waves occupancies Rhoij:
 Atom #  1
   2.09430  -0.11954  -0.00175   0.00000  -0.00175  -0.00027   0.00000  -0.00027   0.01801   0.00000  -0.05589   0.00000 ...
  -0.11954   0.24803   0.00200   0.00000   0.00200   0.00129   0.00000   0.00129  -0.02372   0.00000   0.06536   0.00000 ...
  -0.00175   0.00200   1.86540   0.00000   0.01688   0.01083   0.00000  -0.00191   0.01055   0.00000  -0.02928   0.00000 ...
   0.00000   0.00000   0.00000   1.88629   0.00000   0.00000   0.00874   0.00000   0.00000   0.01240   0.00000   0.01240 ...
  -0.00175   0.00200   0.01688   0.00000   1.86540  -0.00191   0.00000   0.01083   0.01055   0.00000  -0.02928   0.00000 ...
  -0.00027   0.00129   0.01083   0.00000  -0.00191   0.00151   0.00000   0.00009   0.00057   0.00000   0.00213   0.00000 ...
   0.00000   0.00000   0.00000   0.00874   0.00000   0.00000   0.00183   0.00000   0.00000  -0.00033   0.00000  -0.00033 ...
  -0.00027   0.00129  -0.00191   0.00000   0.01083   0.00009   0.00000   0.00151   0.00057   0.00000   0.00213   0.00000 ...
   0.01801  -0.02372   0.01055   0.00000   0.01055   0.00057   0.00000   0.00057   0.43417   0.00000   0.02356   0.00000 ...
   0.00000   0.00000   0.00000   0.01240   0.00000   0.00000  -0.00033   0.00000   0.00000   0.44880   0.00000  -0.04515 ...
  -0.05589   0.06536  -0.02928   0.00000  -0.02928   0.00213   0.00000   0.00213   0.02356   0.00000   0.55718   0.00000 ...
   0.00000   0.00000   0.00000   0.01240   0.00000   0.00000  -0.00033   0.00000   0.00000  -0.04515   0.00000   0.44880 ...
   ...  only 12  components have been written...
 Atom # 31
   2.11787  -0.14742  -0.00121  -0.00121   0.00000   0.00000   0.00000   0.00000   0.00000  -0.00917  -0.00978   0.00000 ...
  -0.14742   0.28752   0.00219   0.00219   0.00000  -0.00018  -0.00018   0.00000   0.00000   0.00831   0.00923   0.00000 ...
  -0.00121   0.00219   1.85305   0.00729   0.00000   0.01216  -0.00075   0.00000   0.00000   0.00376  -0.00855   0.00000 ...
  -0.00121   0.00219   0.00729   1.85305   0.00000  -0.00075   0.01216   0.00000   0.00000   0.00376  -0.00162   0.00000 ...
   0.00000   0.00000   0.00000   0.00000   1.88140   0.00000   0.00000   0.00958  -0.01497   0.00000   0.00000  -0.01497 ...
   0.00000  -0.00018   0.01216  -0.00075   0.00000   0.00156   0.00004   0.00000   0.00000  -0.00017   0.00068   0.00000 ...
   0.00000  -0.00018  -0.00075   0.01216   0.00000   0.00004   0.00156   0.00000   0.00000  -0.00017   0.00057   0.00000 ...
   0.00000   0.00000   0.00000   0.00000   0.00958   0.00000   0.00000   0.00185   0.00167   0.00000   0.00000   0.00167 ...
   0.00000   0.00000   0.00000   0.00000  -0.01497   0.00000   0.00000   0.00167   0.49333   0.00000   0.00000  -0.03674 ...
  -0.00917   0.00831   0.00376   0.00376   0.00000  -0.00017  -0.00017   0.00000   0.00000   0.46381   0.01342   0.00000 ...
  -0.00978   0.00923  -0.00855  -0.00162   0.00000   0.00068   0.00057   0.00000   0.00000   0.01342   0.53504   0.00000 ...
   0.00000   0.00000   0.00000   0.00000  -0.01497   0.00000   0.00000   0.00167  -0.03674   0.00000   0.00000   0.49333 ...
   ...  only 12  components have been written...
 
 
================================================================================
 
 ----iterations are completed or convergence reached----
 
 Mean square residual over all n,k,spin=   10.292E-03; max=  99.248E-02
 reduced coordinates (array xred) for   31 atoms
       0.250000000000      0.250000000000      0.000000000000
       0.250000000000      0.000000000000      0.250000000000
       0.000000000000      0.250000000000      0.250000000000
       0.000000000000      0.000000000000      0.500000000000
       0.250000000000      0.250000000000      0.500000000000
       0.250000000000      0.000000000000      0.750000000000
       0.000000000000      0.250000000000      0.750000000000
       0.000000000000      0.500000000000      0.000000000000
       0.250000000000      0.750000000000      0.000000000000
       0.250000000000      0.500000000000      0.250000000000
       0.000000000000      0.750000000000      0.250000000000
       0.000000000000      0.500000000000      0.500000000000
       0.250000000000      0.750000000000      0.500000000000
       0.250000000000      0.500000000000      0.750000000000
       0.000000000000      0.750000000000      0.750000000000
       0.500000000000      0.000000000000      0.000000000000
       0.750000000000      0.250000000000      0.000000000000
       0.750000000000      0.000000000000      0.250000000000
       0.500000000000      0.250000000000      0.250000000000
       0.500000000000      0.000000000000      0.500000000000
       0.750000000000      0.250000000000      0.500000000000
       0.750000000000      0.000000000000      0.750000000000
       0.500000000000      0.250000000000      0.750000000000
       0.500000000000      0.500000000000      0.000000000000
       0.750000000000      0.750000000000      0.000000000000
       0.750000000000      0.500000000000      0.250000000000
       0.500000000000      0.750000000000      0.250000000000
       0.500000000000      0.500000000000      0.500000000000
       0.750000000000      0.750000000000      0.500000000000
       0.750000000000      0.500000000000      0.750000000000
       0.500000000000      0.750000000000      0.750000000000
 rms dE/dt=  2.0464E-01; max dE/dt=  3.9133E-01; dE/dt below (all hartree)
    1       0.391334444185      0.391334444185      0.000000000000
    2       0.391334444185      0.000000000000      0.391334444185
    3       0.000000000000      0.391334444185      0.391334444185
    4       0.000000000000      0.000000000000      0.000000000000
    5      -0.095557742119     -0.095557742119      0.000000000000
    6       0.391334444185     -0.000000000000     -0.391334444185
    7       0.000000000000      0.391334444185     -0.391334444185
    8       0.000000000000      0.000000000000      0.000000000000
    9       0.391334444185     -0.391334444185      0.000000000000
   10      -0.095557742119      0.000000000000     -0.095557742119
   11       0.000000000000     -0.391334444185      0.391334444185
   12       0.000000000000      0.000000000000      0.000000000000
   13      -0.095557742119      0.095557742119      0.000000000000
   14      -0.095557742119      0.000000000000      0.095557742119
   15      -0.000000000000     -0.391334444185     -0.391334444185
   16       0.000000000000      0.000000000000      0.000000000000
   17      -0.391334444185      0.391334444185     -0.000000000000
   18      -0.391334444185      0.000000000000      0.391334444185
   19       0.000000000000     -0.095557742119     -0.095557742119
   20       0.000000000000      0.000000000000      0.000000000000
   21       0.095557742119     -0.095557742119     -0.000000000000
   22      -0.391334444185     -0.000000000000     -0.391334444185
   23       0.000000000000     -0.095557742119      0.095557742119
   24       0.000000000000      0.000000000000      0.000000000000
   25      -0.391334444185     -0.391334444185      0.000000000000
   26       0.095557742119     -0.000000000000     -0.095557742119
   27      -0.000000000000      0.095557742119     -0.095557742119
   28       0.000000000000      0.000000000000      0.000000000000
   29       0.095557742119      0.095557742119      0.000000000000
   30       0.095557742119      0.000000000000      0.095557742119
   31       0.000000000000      0.095557742119      0.095557742119
 
 cartesian coordinates (angstrom) at end:
    1      2.02939459494265     2.02939459494265     0.00000000000000
    2      2.02939459494265     0.00000000000000     2.02939459494265
    3      0.00000000000000     2.02939459494265     2.02939459494265
    4      0.00000000000000     0.00000000000000     4.05878918988530
    5      2.02939459494265     2.02939459494265     4.05878918988530
    6      2.02939459494265     0.00000000000000     6.08818378482795
    7      0.00000000000000     2.02939459494265     6.08818378482795
    8      0.00000000000000     4.05878918988530     0.00000000000000
    9      2.02939459494265     6.08818378482795     0.00000000000000
   10      2.02939459494265     4.05878918988530     2.02939459494265
   11      0.00000000000000     6.08818378482795     2.02939459494265
   12      0.00000000000000     4.05878918988530     4.05878918988530
   13      2.02939459494265     6.08818378482795     4.05878918988530
   14      2.02939459494265     4.05878918988530     6.08818378482795
   15      0.00000000000000     6.08818378482795     6.08818378482795
   16      4.05878918988530     0.00000000000000     0.00000000000000
   17      6.08818378482795     2.02939459494265     0.00000000000000
   18      6.08818378482795     0.00000000000000     2.02939459494265
   19      4.05878918988530     2.02939459494265     2.02939459494265
   20      4.05878918988530     0.00000000000000     4.05878918988530
   21      6.08818378482795     2.02939459494265     4.05878918988530
   22      6.08818378482795     0.00000000000000     6.08818378482795
   23      4.05878918988530     2.02939459494265     6.08818378482795
   24      4.05878918988530     4.05878918988530     0.00000000000000
   25      6.08818378482795     6.08818378482795     0.00000000000000
   26      6.08818378482795     4.05878918988530     2.02939459494265
   27      4.05878918988530     6.08818378482795     2.02939459494265
   28      4.05878918988530     4.05878918988530     4.05878918988530
   29      6.08818378482795     6.08818378482795     4.05878918988530
   30      6.08818378482795     4.05878918988530     6.08818378482795
   31      4.05878918988530     6.08818378482795     6.08818378482795
 
 cartesian forces (hartree/bohr) at end:
    1     -0.02551071995994    -0.02551071995994    -0.00000000000000
    2     -0.02551071995994     0.00000000000000    -0.02551071995994
    3      0.00000000000000    -0.02551071995994    -0.02551071995994
    4      0.00000000000000     0.00000000000000    -0.00000000000000
    5      0.00622931826066     0.00622931826066    -0.00000000000000
    6     -0.02551071995994     0.00000000000000     0.02551071995994
    7      0.00000000000000    -0.02551071995994     0.02551071995994
    8      0.00000000000000     0.00000000000000    -0.00000000000000
    9     -0.02551071995994     0.02551071995994    -0.00000000000000
   10      0.00622931826066     0.00000000000000     0.00622931826066
   11      0.00000000000000     0.02551071995994    -0.02551071995994
   12      0.00000000000000     0.00000000000000    -0.00000000000000
   13      0.00622931826066    -0.00622931826066    -0.00000000000000
   14      0.00622931826066     0.00000000000000    -0.00622931826066
   15      0.00000000000000     0.02551071995994     0.02551071995994
   16      0.00000000000000     0.00000000000000    -0.00000000000000
   17      0.02551071995994    -0.02551071995994    -0.00000000000000
   18      0.02551071995994     0.00000000000000    -0.02551071995994
   19      0.00000000000000     0.00622931826066     0.00622931826066
   20      0.00000000000000     0.00000000000000    -0.00000000000000
   21     -0.00622931826066     0.00622931826066    -0.00000000000000
   22      0.02551071995994     0.00000000000000     0.02551071995994
   23      0.00000000000000     0.00622931826066    -0.00622931826066
   24      0.00000000000000     0.00000000000000    -0.00000000000000
   25      0.02551071995994     0.02551071995994    -0.00000000000000
   26     -0.00622931826066     0.00000000000000     0.00622931826066
   27      0.00000000000000    -0.00622931826066     0.00622931826066
   28      0.00000000000000     0.00000000000000    -0.00000000000000
   29     -0.00622931826066    -0.00622931826066    -0.00000000000000
   30     -0.00622931826066     0.00000000000000    -0.00622931826066
   31      0.00000000000000    -0.00622931826066    -0.00622931826066
 frms,max,avg= 1.3340225E-02 2.5510720E-02   0.000E+00  0.000E+00  0.000E+00 h/b
 
 cartesian forces (eV/Angstrom) at end:
    1     -1.31181385385924    -1.31181385385924    -0.00000000000000
    2     -1.31181385385924     0.00000000000000    -1.31181385385924
    3      0.00000000000000    -1.31181385385924    -1.31181385385924
    4      0.00000000000000     0.00000000000000    -0.00000000000000
    5      0.32032439724432     0.32032439724432    -0.00000000000000
    6     -1.31181385385924     0.00000000000000     1.31181385385924
    7      0.00000000000000    -1.31181385385924     1.31181385385924
    8      0.00000000000000     0.00000000000000    -0.00000000000000
    9     -1.31181385385924     1.31181385385924    -0.00000000000000
   10      0.32032439724432     0.00000000000000     0.32032439724432
   11      0.00000000000000     1.31181385385924    -1.31181385385924
   12      0.00000000000000     0.00000000000000    -0.00000000000000
   13      0.32032439724432    -0.32032439724432    -0.00000000000000
   14      0.32032439724432     0.00000000000000    -0.32032439724432
   15      0.00000000000000     1.31181385385924     1.31181385385924
   16      0.00000000000000     0.00000000000000    -0.00000000000000
   17      1.31181385385924    -1.31181385385924    -0.00000000000000
   18      1.31181385385924     0.00000000000000    -1.31181385385924
   19      0.00000000000000     0.32032439724432     0.32032439724432
   20      0.00000000000000     0.00000000000000    -0.00000000000000
   21     -0.32032439724432     0.32032439724432    -0.00000000000000
   22      1.31181385385924     0.00000000000000     1.31181385385924
   23      0.00000000000000     0.32032439724432    -0.32032439724432
   24      0.00000000000000     0.00000000000000    -0.00000000000000
   25      1.31181385385924     1.31181385385924    -0.00000000000000
   26     -0.32032439724432     0.00000000000000     0.32032439724432
   27      0.00000000000000    -0.32032439724432     0.32032439724432
   28      0.00000000000000     0.00000000000000    -0.00000000000000
   29     -0.32032439724432    -0.32032439724432    -0.00000000000000
   30     -0.32032439724432     0.00000000000000    -0.32032439724432
   31      0.00000000000000    -0.32032439724432    -0.32032439724432
 frms,max,avg= 6.8598191E-01 1.3118139E+00   0.000E+00  0.000E+00  0.000E+00 e/A
 length scales= 15.340000000000 15.340000000000 15.340000000000 bohr
              =  8.117578379771  8.117578379771  8.117578379771 angstroms
 Fermi (or HOMO) energy (hartree) =   0.39065   Average Vxc (hartree)=  -0.49570
 Eigenvalues (hartree) for nkpt=   1  k points:
 kpt#   1, nband=192, wtk=  1.00000, kpt=  0.0000  0.0000  0.0000 (reduced coord)
  -0.78407   -0.72613   -0.72613   -0.72058   -0.72058   -0.72058   -0.70836   -0.67947
  -0.67947   -0.67317   -0.67317   -0.67317   -0.67314   -0.67290   -0.67290   -0.67290
  -0.66986   -0.66986   -0.66986   -0.66252   -0.66252   -0.66252   -0.63138   -0.61895
  -0.61807   -0.61807   -0.61435   -0.61435   -0.61280   -0.61280   -0.61280   -0.33392
  -0.32895   -0.32895   -0.32895   -0.30077   -0.30077   -0.30077   -0.23772   -0.23661
  -0.23661   -0.23661   -0.23104   -0.23104   -0.23104   -0.23042   -0.23042   -0.23042
  -0.22869   -0.22869   -0.22850   -0.22850   -0.22850   -0.22787   -0.22787   -0.22787
  -0.22437   -0.22437   -0.22437   -0.20403   -0.20403   -0.20403   -0.15899   -0.15899
  -0.15869   -0.15869   -0.15869   -0.15566   -0.14971   -0.14971   -0.14971   -0.14819
  -0.14819   -0.14819   -0.14663   -0.13817   -0.13817   -0.13422   -0.13422   -0.13422
  -0.13047   -0.12298   -0.12298   -0.11521   -0.11521   -0.11521   -0.09752   -0.09752
  -0.09752   -0.07526   -0.07526   -0.07526   -0.03847   -0.03847   -0.03847   -0.03801
  -0.03801   -0.03801   -0.03323   -0.03323   -0.03323   -0.02030   -0.02030   -0.02030
  -0.00436   -0.00436   -0.00436   -0.00269   -0.00233   -0.00233   -0.00233   -0.00192
  -0.00192   -0.00192    0.00264    0.00264    0.00327    0.00327    0.00662    0.00662
   0.00662    0.05262    0.05262    0.05262    0.21684    0.23244    0.23244    0.24537
   0.24537    0.24537    0.31470    0.31855    0.31855    0.32861    0.32861    0.32861
   0.32956    0.36303    0.36303    0.36303    0.36627    0.37805    0.37805    0.37805
   0.38024    0.38024    0.38217    0.38217    0.38217    0.38449    0.38489    0.38489
   0.38489    0.39136    0.39136    0.39212    0.39212    0.39212    0.39404    0.39404
   0.39404    0.40313    0.42650    0.42650    0.46378    0.46379    0.46382    0.46522
   0.46524    0.46534    0.48269    0.48585    0.48601    0.48668    0.48869    0.48908
   0.49656    0.49665    0.49727    0.52698    0.52809    0.53036    0.53417    0.53768
   0.54145    0.54552    0.55389    0.55762    0.55993    0.59449    0.63445    0.78672
      occupation numbers for kpt#   1
   2.00000    2.00000    2.00000    2.00000    2.00000    2.00000    2.00000    2.00000
   2.00000    2.00000    2.00000    2.00000    2.00000    2.00000    2.00000    2.00000
   2.00000    2.00000    2.00000    2.00000    2.00000    2.00000    2.00000    2.00000
   2.00000    2.00000    2.00000    2.00000    2.00000    2.00000    2.00000    2.00000
   2.00000    2.00000    2.00000    2.00000    2.00000    2.00000    2.00000    2.00000
   2.00000    2.00000    2.00000    2.00000    2.00000    2.00000    2.00000    2.00000
   2.00000    2.00000    2.00000    2.00000    2.00000    2.00000    2.00000    2.00000
   2.00000    2.00000    2.00000    2.00000    2.00000    2.00000    2.00000    2.00000
   2.00000    2.00000    2.00000    2.00000    2.00000    2.00000    2.00000    2.00000
   2.00000    2.00000    2.00000    2.00000    2.00000    2.00000    2.00000    2.00000
   2.00000    2.00000    2.00000    2.00000    2.00000    2.00000    2.00000    2.00000
   2.00000    2.00000    2.00000    2.00000    2.00000    2.00000    2.00000    2.00000
   2.00000    2.00000    2.00000    2.00000    2.00000    2.00000    2.00000    2.00000
   2.00000    2.00000    2.00000    2.00000    2.00000    2.00000    2.00000    2.00000
   2.00000    2.00000    2.00000    2.00000    2.00000    2.00000    2.00000    2.00000
   2.00000    2.00000    2.00000    2.00000    2.00000    2.00000    2.00000    2.00000
   2.00000    2.00000    2.00000    2.00000    2.00000    2.00000    2.00000    2.00000
   2.00000    2.00000    2.00000    2.00000    1.99999    1.99632    1.99632    1.99632
   1.98906    1.98906    1.97161    1.97161    1.97160    1.91210    1.89354    1.89353
   1.89353    0.82442    0.82433    0.64792    0.64791    0.64787    0.30971    0.30971
   0.30966    0.00388    0.00000    0.00000    0.00000    0.00000    0.00000    0.00000
   0.00000    0.00000    0.00000    0.00000    0.00000    0.00000    0.00000    0.00000
   0.00000    0.00000    0.00000    0.00000    0.00000    0.00000    0.00000    0.00000
   0.00000    0.00000    0.00000    0.00000    0.00000    0.00000    0.00000    0.00000
 
--------------------------------------------------------------------------------
 Components of total free energy (in Hartree) :
 
    Kinetic energy  =  3.06298852075899E+02
    Hartree energy  =  3.63338102725629E+01
    XC energy       = -1.89094333828109E+02
    Ewald energy    = -9.05896420881061E+02
    PspCore energy  =  1.58170863145426E+02
    Loc. psp. energy= -1.22018279499333E+02
    Spherical terms = -8.41964078214669E+01
    >>>>> Internal E= -8.00401916536081E+02
 
    -kT*entropy     = -2.27507715965321E-02
    >>>>>>>>> Etotal= -8.00424667307678E+02
 
 "Double-counting" decomposition of free energy:
    Band energy     = -4.40505186129610E+01
    Ewald energy    =-9.05896420881061E+02
    PspCore energy  =  1.58170863145426E+02
    Dble-C XC-energy=  1.75597020310369E+01
    Spherical terms = -2.61879627934231E+01
    >>>>> Internal E= -8.00404337110982E+02
 
    -kT*entropy     = -2.27507715965321E-02
    >>>> Etotal (DC)= -8.00427087882578E+02
 
  >Total energy in eV           = -2.17806628731220E+04
  >Total DC energy in eV        = -2.17807287403148E+04
--------------------------------------------------------------------------------
 
 
 
 
 
 Cartesian components of stress tensor (hartree/bohr^3)
  sigma(1 1)= -4.33618473E-03  sigma(3 2)=  0.00000000E+00
  sigma(2 2)= -4.33618473E-03  sigma(3 1)=  0.00000000E+00
  sigma(3 3)= -4.33618473E-03  sigma(2 1)=  0.00000000E+00
 
-Cartesian components of stress tensor (GPa)         [Pressure=  1.2757E+02 GPa]
- sigma(1 1)= -1.27574938E+02  sigma(3 2)=  0.00000000E+00
- sigma(2 2)= -1.27574938E+02  sigma(3 1)=  0.00000000E+00
- sigma(3 3)= -1.27574938E+02  sigma(2 1)=  0.00000000E+00
 
== END DATASET(S) ==============================================================
================================================================================
  
 -outvars: echo values of variables after computation  --------
            acell      1.5340000000E+01  1.5340000000E+01  1.5340000000E+01 Bohr
              amu      1.37327000E+02
           bandpp         192
      chksymbreak           0
             ecut      8.00000000E+00 Hartree
           etotal     -8.0042708788E+02
            fcart     -2.5510719960E-02 -2.5510719960E-02 -8.3938232726E-20
                      -2.5510719960E-02  5.5958821788E-20 -2.5510719960E-02
                       6.1554703985E-19 -2.5510719960E-02 -2.5510719960E-02
                       6.1554703986E-19  5.5958821806E-20 -8.3938232709E-20
                       6.2293182607E-03  6.2293182607E-03 -8.3938232709E-20
                      -2.5510719960E-02  5.5958821810E-20  2.5510719960E-02
                       6.1554703984E-19 -2.5510719960E-02  2.5510719960E-02
                       6.1554703986E-19  5.5958821806E-20 -8.3938232709E-20
                      -2.5510719960E-02  2.5510719960E-02 -8.3938232713E-20
                       6.2293182607E-03  5.5958821806E-20  6.2293182607E-03
                       6.1554703986E-19  2.5510719960E-02 -2.5510719960E-02
                       6.1554703986E-19  5.5958821806E-20 -8.3938232709E-20
                       6.2293182607E-03 -6.2293182607E-03 -8.3938232722E-20
                       6.2293182607E-03  5.5958821788E-20 -6.2293182607E-03
                       6.1554703987E-19  2.5510719960E-02  2.5510719960E-02
                       6.1554703986E-19  5.5958821806E-20 -8.3938232709E-20
                       2.5510719960E-02 -2.5510719960E-02 -8.3938232704E-20
                       2.5510719960E-02  5.5958821766E-20 -2.5510719960E-02
                       6.1554703986E-19  6.2293182607E-03  6.2293182607E-03
                       6.1554703986E-19  5.5958821806E-20 -8.3938232709E-20
                      -6.2293182607E-03  6.2293182607E-03 -8.3938232695E-20
                       2.5510719960E-02  5.5958821823E-20  2.5510719960E-02
                       6.1554703984E-19  6.2293182607E-03 -6.2293182607E-03
                       6.1554703986E-19  5.5958821806E-20 -8.3938232709E-20
                       2.5510719960E-02  2.5510719960E-02 -8.3938232726E-20
                      -6.2293182607E-03  5.5958821823E-20  6.2293182607E-03
                       6.1554703988E-19 -6.2293182607E-03  6.2293182607E-03
                       6.1554703986E-19  5.5958821806E-20 -8.3938232709E-20
                      -6.2293182607E-03 -6.2293182607E-03 -8.3938232709E-20
                      -6.2293182607E-03  5.5958821806E-20 -6.2293182607E-03
                       6.1554703986E-19 -6.2293182607E-03 -6.2293182607E-03
-          fftalg         312
           istwfk        1
              ixc           7
           kptopt           0
P           mkmem           1
            natom          31
            nband         192
            ngfft          40      40      40
          ngfftdg          45      45      45
             nkpt           1
            nstep          40
             nsym          48
           ntypat           1
              occ      2.000000  2.000000  2.000000  2.000000  2.000000  2.000000
                       2.000000  2.000000  2.000000  2.000000  2.000000  2.000000
                       2.000000  2.000000  2.000000  2.000000  2.000000  2.000000
                       2.000000  2.000000  2.000000  2.000000  2.000000  2.000000
                       2.000000  2.000000  2.000000  2.000000  2.000000  2.000000
                       2.000000  2.000000  2.000000  2.000000  2.000000  2.000000
                       2.000000  2.000000  2.000000  2.000000  2.000000  2.000000
                       2.000000  2.000000  2.000000  2.000000  2.000000  2.000000
                       2.000000  2.000000  2.000000  2.000000  2.000000  2.000000
                       2.000000  2.000000  2.000000  2.000000  2.000000  2.000000
                       2.000000  2.000000  2.000000  2.000000  2.000000  2.000000
                       2.000000  2.000000  2.000000  2.000000  2.000000  2.000000
                       2.000000  2.000000  2.000000  2.000000  2.000000  2.000000
                       2.000000  2.000000  2.000000  2.000000  2.000000  2.000000
                       2.000000  2.000000  2.000000  2.000000  2.000000  2.000000
                       2.000000  2.000000  2.000000  2.000000  2.000000  2.000000
                       2.000000  2.000000  2.000000  2.000000  2.000000  2.000000
                       2.000000  2.000000  2.000000  2.000000  2.000000  2.000000
                       2.000000  2.000000  2.000000  2.000000  2.000000  2.000000
                       2.000000  2.000000  2.000000  2.000000  2.000000  2.000000
                       2.000000  2.000000  2.000000  2.000000  2.000000  2.000000
                       2.000000  2.000000  2.000000  2.000000  2.000000  2.000000
                       2.000000  2.000000  2.000000  2.000000  2.000000  1.999998
                       1.999998  1.999998  1.999990  1.996323  1.996323  1.996322
                       1.989064  1.989064  1.971605  1.971605  1.971604  1.912096
                       1.893537  1.893535  1.893529  0.824416  0.824327  0.647922
                       0.647913  0.647871  0.309713  0.309705  0.309661  0.003882
                       0.000000  0.000000  0.000000  0.000000  0.000000  0.000000
                       0.000000  0.000000  0.000000  0.000000  0.000000  0.000000
                       0.000000  0.000000  0.000000  0.000000  0.000000  0.000000
                       0.000000  0.000000  0.000000  0.000000  0.000000  0.000000
                       0.000000  0.000000  0.000000  0.000000  0.000000  0.000000
           occopt           3
        pawecutdg      1.00000000E+01 Hartree
           prtden           0
           prteig           0
            prtwf           0
          spgroup         221
           strten     -4.3361847277E-03 -4.3361847277E-03 -4.3361847277E-03
                       0.0000000000E+00  0.0000000000E+00  0.0000000000E+00
           symrel      1  0  0   0  1  0   0  0  1      -1  0  0   0 -1  0   0  0 -1
                      -1  0  0   0  1  0   0  0 -1       1  0  0   0 -1  0   0  0  1
                      -1  0  0   0 -1  0   0  0  1       1  0  0   0  1  0   0  0 -1
                       1  0  0   0 -1  0   0  0 -1      -1  0  0   0  1  0   0  0  1
                       0  1  0   1  0  0   0  0  1       0 -1  0  -1  0  0   0  0 -1
                       0 -1  0   1  0  0   0  0 -1       0  1  0  -1  0  0   0  0  1
                       0 -1  0  -1  0  0   0  0  1       0  1  0   1  0  0   0  0 -1
                       0  1  0  -1  0  0   0  0 -1       0 -1  0   1  0  0   0  0  1
                       0  0  1   1  0  0   0  1  0       0  0 -1  -1  0  0   0 -1  0
                       0  0 -1   1  0  0   0 -1  0       0  0  1  -1  0  0   0  1  0
                       0  0 -1  -1  0  0   0  1  0       0  0  1   1  0  0   0 -1  0
                       0  0  1  -1  0  0   0 -1  0       0  0 -1   1  0  0   0  1  0
                       1  0  0   0  0  1   0  1  0      -1  0  0   0  0 -1   0 -1  0
                      -1  0  0   0  0  1   0 -1  0       1  0  0   0  0 -1   0  1  0
                      -1  0  0   0  0 -1   0  1  0       1  0  0   0  0  1   0 -1  0
                       1  0  0   0  0 -1   0 -1  0      -1  0  0   0  0  1   0  1  0
                       0  1  0   0  0  1   1  0  0       0 -1  0   0  0 -1  -1  0  0
                       0 -1  0   0  0  1  -1  0  0       0  1  0   0  0 -1   1  0  0
                       0 -1  0   0  0 -1   1  0  0       0  1  0   0  0  1  -1  0  0
                       0  1  0   0  0 -1  -1  0  0       0 -1  0   0  0  1   1  0  0
                       0  0  1   0  1  0   1  0  0       0  0 -1   0 -1  0  -1  0  0
                       0  0 -1   0  1  0  -1  0  0       0  0  1   0 -1  0   1  0  0
                       0  0 -1   0 -1  0   1  0  0       0  0  1   0  1  0  -1  0  0
                       0  0  1   0 -1  0  -1  0  0       0  0 -1   0  1  0   1  0  0
           timopt          -3
           toldfe      1.00000000E-05 Hartree
           tsmear      2.00000000E-03 Hartree
            typat      1  1  1  1  1  1  1  1  1  1  1  1  1  1  1  1  1  1  1  1
                       1  1  1  1  1  1  1  1  1  1  1
           useylm           1
         wfoptalg         111
           xangst      2.0293945949E+00  2.0293945949E+00  0.0000000000E+00
                       2.0293945949E+00  0.0000000000E+00  2.0293945949E+00
                       0.0000000000E+00  2.0293945949E+00  2.0293945949E+00
                       0.0000000000E+00  0.0000000000E+00  4.0587891899E+00
                       2.0293945949E+00  2.0293945949E+00  4.0587891899E+00
                       2.0293945949E+00  0.0000000000E+00  6.0881837848E+00
                       0.0000000000E+00  2.0293945949E+00  6.0881837848E+00
                       0.0000000000E+00  4.0587891899E+00  0.0000000000E+00
                       2.0293945949E+00  6.0881837848E+00  0.0000000000E+00
                       2.0293945949E+00  4.0587891899E+00  2.0293945949E+00
                       0.0000000000E+00  6.0881837848E+00  2.0293945949E+00
                       0.0000000000E+00  4.0587891899E+00  4.0587891899E+00
                       2.0293945949E+00  6.0881837848E+00  4.0587891899E+00
                       2.0293945949E+00  4.0587891899E+00  6.0881837848E+00
                       0.0000000000E+00  6.0881837848E+00  6.0881837848E+00
                       4.0587891899E+00  0.0000000000E+00  0.0000000000E+00
                       6.0881837848E+00  2.0293945949E+00  0.0000000000E+00
                       6.0881837848E+00  0.0000000000E+00  2.0293945949E+00
                       4.0587891899E+00  2.0293945949E+00  2.0293945949E+00
                       4.0587891899E+00  0.0000000000E+00  4.0587891899E+00
                       6.0881837848E+00  2.0293945949E+00  4.0587891899E+00
                       6.0881837848E+00  0.0000000000E+00  6.0881837848E+00
                       4.0587891899E+00  2.0293945949E+00  6.0881837848E+00
                       4.0587891899E+00  4.0587891899E+00  0.0000000000E+00
                       6.0881837848E+00  6.0881837848E+00  0.0000000000E+00
                       6.0881837848E+00  4.0587891899E+00  2.0293945949E+00
                       4.0587891899E+00  6.0881837848E+00  2.0293945949E+00
                       4.0587891899E+00  4.0587891899E+00  4.0587891899E+00
                       6.0881837848E+00  6.0881837848E+00  4.0587891899E+00
                       6.0881837848E+00  4.0587891899E+00  6.0881837848E+00
                       4.0587891899E+00  6.0881837848E+00  6.0881837848E+00
            xcart      3.8350000000E+00  3.8350000000E+00  0.0000000000E+00
                       3.8350000000E+00  0.0000000000E+00  3.8350000000E+00
                       0.0000000000E+00  3.8350000000E+00  3.8350000000E+00
                       0.0000000000E+00  0.0000000000E+00  7.6700000000E+00
                       3.8350000000E+00  3.8350000000E+00  7.6700000000E+00
                       3.8350000000E+00  0.0000000000E+00  1.1505000000E+01
                       0.0000000000E+00  3.8350000000E+00  1.1505000000E+01
                       0.0000000000E+00  7.6700000000E+00  0.0000000000E+00
                       3.8350000000E+00  1.1505000000E+01  0.0000000000E+00
                       3.8350000000E+00  7.6700000000E+00  3.8350000000E+00
                       0.0000000000E+00  1.1505000000E+01  3.8350000000E+00
                       0.0000000000E+00  7.6700000000E+00  7.6700000000E+00
                       3.8350000000E+00  1.1505000000E+01  7.6700000000E+00
                       3.8350000000E+00  7.6700000000E+00  1.1505000000E+01
                       0.0000000000E+00  1.1505000000E+01  1.1505000000E+01
                       7.6700000000E+00  0.0000000000E+00  0.0000000000E+00
                       1.1505000000E+01  3.8350000000E+00  0.0000000000E+00
                       1.1505000000E+01  0.0000000000E+00  3.8350000000E+00
                       7.6700000000E+00  3.8350000000E+00  3.8350000000E+00
                       7.6700000000E+00  0.0000000000E+00  7.6700000000E+00
                       1.1505000000E+01  3.8350000000E+00  7.6700000000E+00
                       1.1505000000E+01  0.0000000000E+00  1.1505000000E+01
                       7.6700000000E+00  3.8350000000E+00  1.1505000000E+01
                       7.6700000000E+00  7.6700000000E+00  0.0000000000E+00
                       1.1505000000E+01  1.1505000000E+01  0.0000000000E+00
                       1.1505000000E+01  7.6700000000E+00  3.8350000000E+00
                       7.6700000000E+00  1.1505000000E+01  3.8350000000E+00
                       7.6700000000E+00  7.6700000000E+00  7.6700000000E+00
                       1.1505000000E+01  1.1505000000E+01  7.6700000000E+00
                       1.1505000000E+01  7.6700000000E+00  1.1505000000E+01
                       7.6700000000E+00  1.1505000000E+01  1.1505000000E+01
             xred      2.5000000000E-01  2.5000000000E-01  0.0000000000E+00
                       2.5000000000E-01  0.0000000000E+00  2.5000000000E-01
                       0.0000000000E+00  2.5000000000E-01  2.5000000000E-01
                       0.0000000000E+00  0.0000000000E+00  5.0000000000E-01
                       2.5000000000E-01  2.5000000000E-01  5.0000000000E-01
                       2.5000000000E-01  0.0000000000E+00  7.5000000000E-01
                       0.0000000000E+00  2.5000000000E-01  7.5000000000E-01
                       0.0000000000E+00  5.0000000000E-01  0.0000000000E+00
                       2.5000000000E-01  7.5000000000E-01  0.0000000000E+00
                       2.5000000000E-01  5.0000000000E-01  2.5000000000E-01
                       0.0000000000E+00  7.5000000000E-01  2.5000000000E-01
                       0.0000000000E+00  5.0000000000E-01  5.0000000000E-01
                       2.5000000000E-01  7.5000000000E-01  5.0000000000E-01
                       2.5000000000E-01  5.0000000000E-01  7.5000000000E-01
                       0.0000000000E+00  7.5000000000E-01  7.5000000000E-01
                       5.0000000000E-01  0.0000000000E+00  0.0000000000E+00
                       7.5000000000E-01  2.5000000000E-01  0.0000000000E+00
                       7.5000000000E-01  0.0000000000E+00  2.5000000000E-01
                       5.0000000000E-01  2.5000000000E-01  2.5000000000E-01
                       5.0000000000E-01  0.0000000000E+00  5.0000000000E-01
                       7.5000000000E-01  2.5000000000E-01  5.0000000000E-01
                       7.5000000000E-01  0.0000000000E+00  7.5000000000E-01
                       5.0000000000E-01  2.5000000000E-01  7.5000000000E-01
                       5.0000000000E-01  5.0000000000E-01  0.0000000000E+00
                       7.5000000000E-01  7.5000000000E-01  0.0000000000E+00
                       7.5000000000E-01  5.0000000000E-01  2.5000000000E-01
                       5.0000000000E-01  7.5000000000E-01  2.5000000000E-01
                       5.0000000000E-01  5.0000000000E-01  5.0000000000E-01
                       7.5000000000E-01  7.5000000000E-01  5.0000000000E-01
                       7.5000000000E-01  5.0000000000E-01  7.5000000000E-01
                       5.0000000000E-01  7.5000000000E-01  7.5000000000E-01
            znucl       56.00000
 
================================================================================
 
 Test the timer : 
  a combined call timab(*,1,tsec) + timab(*,2,tsec) is 
- CPU time =    4.0093E-05 sec,    Wall time =    3.1840E-06 sec

- Total cpu        time (s,m,h):        934.1       15.57      0.259
- Total wall clock time (s,m,h):         82.9        1.38      0.023
-
- For major independent code sections, cpu and wall times (sec),
-  as well as % of the time and number of calls for node 0-
-<BEGIN_TIMER mpi_nprocs = 1, omp_nthreads = 12, mpi_rank = 0>
- cpu_time =          934.1, wall_time =           82.9
-
- routine                        cpu     %       wall     %      number of calls  Gflops    Speedup Efficacity
-                                                                  (-1=no count)
- nonlop(apply)               2738.338 293.1    235.718 284.2           1632      -1.00       11.62       0.97
- vtowfk(ssdiag)               758.504  81.2     66.471  80.1             -1      -1.00       11.41       0.95
- chebfiwf2                    757.596  81.1     66.388  80.0             24      -1.00       11.41       0.95
- fourwf%(pot)                 402.944  43.1     36.041  43.4           1440      -1.00       11.18       0.93
- getghc-other                 108.966  11.7      9.902  11.9             -1      -1.00       11.00       0.92
- pawdenpot                     38.343   4.1      3.334   4.0             22      -1.00       11.50       0.96
- vtowfk(contrib)               21.864   2.3      1.912   2.3             22      -1.00       11.43       0.95
- pawmkrho                      19.940   2.1      1.729   2.1             22      -1.00       11.53       0.96
- fourwf%(den)                  18.795   2.0      1.796   2.2           3593      -1.00       10.46       0.87
- pawdij/symdij                 16.854   1.8      1.441   1.7             22      -1.00       11.70       0.97
- pawmkrho:symrhoij             15.919   1.7      1.375   1.7             22      -1.00       11.57       0.96
- nonlop(forstr)                10.215   1.1      0.876   1.1              1      -1.00       11.66       0.97
- fourdp                         6.693   0.7      0.571   0.7            203      -1.00       11.71       0.98
- xc:pot/=fourdp                 3.945   0.4      0.342   0.4             23      -1.00       11.52       0.96
- pawinit                        3.807   0.4      0.324   0.4              2      -1.00       11.77       0.98
- newkpt(excl. rwwf   )          3.382   0.4      0.284   0.3             -1      -1.00       11.89       0.99
- vtorho:pawmkrhoij              3.313   0.4      0.284   0.3             22      -1.00       11.68       0.97
- pspini                         2.999   0.3      0.809   1.0              1      -1.00        3.71       0.31
- ewald                          2.668   0.3      0.499   0.6              1      -1.00        5.34       0.45
- stress                         2.441   0.3      0.238   0.3              1      -1.00       10.23       0.85
- ewald2 (+vdw_dftd)             2.212   0.2      0.220   0.3              1      -1.00       10.05       0.84
- mkrho/=                        1.623   0.2      0.123   0.1             44      -1.00       13.15       1.10
- forces                         1.139   0.1      0.097   0.1              1      -1.00       11.73       0.98
- vtowfk  (1)                    1.097   0.1      0.094   0.1             22      -1.00       11.64       0.97
- nhatgrid                       0.951   0.1      0.081   0.1              2      -1.00       11.79       0.98
- symrhg(no FFT)                 0.908   0.1      0.080   0.1             22      -1.00       11.35       0.95
- timing timab                   0.135   0.0      0.011   0.0              4      -1.00       12.59       1.05
- setsym                         0.131   0.0      0.010   0.0              1      -1.00       12.70       1.06
- scfcv-scprqt                   0.112   0.0      0.007   0.0             22      -1.00       15.33       1.28
- invars2                        0.072   0.0      0.072   0.1              1      -1.00        1.00       0.08
- abinit(2)                      0.051   0.0      0.051   0.1              1      -1.00        1.00       0.08
- others (104)                   0.000   0.0      0.000   0.0             -1      -1.00        1.42       0.12
-<END_TIMER>
-
- subtotal                    4945.956 529.5    431.182 519.8                                 11.47       0.96

- For major independent code sections, cpu and wall times (sec),
- as well as % of the total time and number of calls 

-<BEGIN_TIMER mpi_nprocs = 1, omp_nthreads = 12, mpi_rank = world>
- cpu_time =         934.1, wall_time =          82.9
-
- routine                         cpu     %       wall     %      number of calls Gflops    Speedup Efficacity
-                                                                  (-1=no count)
- nonlop(apply)               2738.338 293.1    235.718 284.2           1632      -1.00       11.62       0.97
- vtowfk(ssdiag)               758.504  81.2     66.471  80.1             -1      -1.00       11.41       0.95
- chebfiwf2                    757.596  81.1     66.388  80.0             24      -1.00       11.41       0.95
- fourwf%(pot)                 402.944  43.1     36.041  43.4           1440      -1.00       11.18       0.93
- getghc-other                 108.966  11.7      9.902  11.9             -1      -1.00       11.00       0.92
- pawdenpot                     38.343   4.1      3.334   4.0             22      -1.00       11.50       0.96
- vtowfk(contrib)               21.864   2.3      1.912   2.3             22      -1.00       11.43       0.95
- pawmkrho                      19.940   2.1      1.729   2.1             22      -1.00       11.53       0.96
- fourwf%(den)                  18.795   2.0      1.796   2.2           3593      -1.00       10.46       0.87
- pawdij/symdij                 16.854   1.8      1.441   1.7             22      -1.00       11.70       0.97
- pawmkrho:symrhoij             15.919   1.7      1.375   1.7             22      -1.00       11.57       0.96
- nonlop(forstr)                10.215   1.1      0.876   1.1              1      -1.00       11.66       0.97
- fourdp                         6.693   0.7      0.571   0.7            203      -1.00       11.71       0.98
- xc:pot/=fourdp                 3.945   0.4      0.342   0.4             23      -1.00       11.52       0.96
- pawinit                        3.807   0.4      0.324   0.4              2      -1.00       11.77       0.98
- newkpt(excl. rwwf   )          3.382   0.4      0.284   0.3             -1      -1.00       11.89       0.99
- vtorho:pawmkrhoij              3.313   0.4      0.284   0.3             22      -1.00       11.68       0.97
- pspini                         2.999   0.3      0.809   1.0              1      -1.00        3.71       0.31
- ewald                          2.668   0.3      0.499   0.6              1      -1.00        5.34       0.45
- stress                         2.441   0.3      0.238   0.3              1      -1.00       10.23       0.85
- ewald2 (+vdw_dftd)             2.212   0.2      0.220   0.3              1      -1.00       10.05       0.84
- mkrho/=                        1.623   0.2      0.123   0.1             44      -1.00       13.15       1.10
- forces                         1.139   0.1      0.097   0.1              1      -1.00       11.73       0.98
- vtowfk  (1)                    1.097   0.1      0.094   0.1             22      -1.00       11.64       0.97
- nhatgrid                       0.951   0.1      0.081   0.1              2      -1.00       11.79       0.98
- symrhg(no FFT)                 0.908   0.1      0.080   0.1             22      -1.00       11.35       0.95
- timing timab                   0.135   0.0      0.011   0.0              4      -1.00       12.59       1.05
- setsym                         0.131   0.0      0.010   0.0              1      -1.00       12.70       1.06
- scfcv-scprqt                   0.112   0.0      0.007   0.0             22      -1.00       15.33       1.28
- invars2                        0.072   0.0      0.072   0.1              1      -1.00        1.00       0.08
- abinit(2)                      0.051   0.0      0.051   0.1              1      -1.00        1.00       0.08
- others (104)                   0.000   0.0      0.000   0.0             -1      -1.00        1.42       0.12
-<END_TIMER>

- subtotal                    4945.956 529.5    431.182 519.8                                 11.47       0.96

 Partitioning of abinit
- abinit                       934.133 100.0     82.949 100.0              1                  11.26       0.94
 
- abinit(2)                      0.051   0.0      0.051   0.1              1                   1.00       0.08
- indefo+macroin+invars2m        0.072   0.0      0.072   0.1              1                   1.00       0.08
- abinit(4)                      0.140   0.0      0.141   0.2              1                   1.00       0.08
- abinit(5)                      0.100   0.0      0.046   0.1              1                   2.19       0.18
- driver                       933.716 100.0     82.743  99.8              1                  11.28       0.94

- subtotal                     934.133 100.0     82.949 100.0                                 11.26       0.94

 Partitioning of driver
- driver                       933.716 100.0     82.743  99.8              1                  11.28       0.94
 
- gstateimg                    933.713 100.0     82.742  99.8              1                  11.28       0.94

- subtotal                     933.716 100.0     82.743  99.8                                 11.28       0.94

 Partitioning of gstateimg+gstate
- gstateimg                    933.713 100.0     82.742  99.8              1                  11.28       0.94
 
- gstate->kpgsph                 3.588   0.4      0.303   0.4              2                  11.85       0.99
- gstate(pspini)                 2.999   0.3      0.809   1.0              1                   3.71       0.31
- gstate  (2)                    2.692   0.3      0.231   0.3              1                  11.67       0.97
- gstate(...scfcv)             924.428  99.0     81.394  98.1              1                  11.36       0.95

- subtotal                     933.713 100.0     82.742  99.8                                 11.28       0.94

 Partitioning of scfcv_core
- scfcv_core                   924.424  99.0     81.394  98.1              1                  11.36       0.95
 
- scfcv_core(iniloop, setv       3.283   0.4      0.567   0.7             22                   5.79       0.48
- scfcv_core(loop, PAW)         55.224   5.9      4.783   5.8             22                  11.55       0.96
- scfcv_core(vtorho(f))        838.562  89.8     73.602  88.7             22                  11.39       0.95
- scfcv_core(mix den - new       5.267   0.6      0.475   0.6             21                  11.09       0.92
- scfcv_core(rhotov)             6.473   0.7      0.588   0.7             21                  11.02       0.92
- scfcv_core(afterscfloop)      15.208   1.6      1.335   1.6              1                  11.39       0.95

- subtotal                     924.424  99.0     81.394  98.1                                 11.36       0.95

 Partitioning of rhotov
- rhotov                         5.293   0.6      0.472   0.6             21                  11.21       0.93
 
- rhotov(rhotoxc)                3.800   0.4      0.331   0.4             21                  11.48       0.96
- rhotov(dotprod_vn)             0.214   0.0      0.022   0.0             21                   9.57       0.80
- rhotov(other)                  0.534   0.1      0.052   0.1             21                  10.30       0.86
- (other)                        0.745   0.1      0.067   0.1             -1                  11.12       0.93

- subtotal                       5.293   0.6      0.472   0.6                                 11.21       0.93

 Partitioning of vtorho
- vtorho                       838.562  89.8     73.602  88.7             22                  11.39       0.95
 
- vtorho(bef. spin loop)         0.349   0.0      0.038   0.0             22                   9.28       0.77
- vtorho(bef. kpt  loop)         1.464   0.2      0.124   0.1             22                  11.85       0.99
- vtorho(bef. vtowfk)            2.563   0.3      0.226   0.3             22                  11.35       0.95
- vtowfk                       781.464  83.7     68.477  82.6             22                  11.41       0.95
- vtorho(newocc)                 6.322   0.7      0.558   0.7             22                  11.32       0.94
- vtorho(mkrho 1)               22.170   2.4      2.063   2.5             22                  10.75       0.90
- vtorho(mkrho 2)               24.061   2.6      2.096   2.5             22                  11.48       0.96
- mkinvovl                       1.705   0.2      0.144   0.2              1                  11.84       0.99

- subtotal                     838.562  89.8     73.602  88.7                                 11.39       0.95

 Partitioning of vtowfk
- vtowfk                       781.464  83.7     68.477  82.6             22                  11.41       0.95
 
- vtowfk  (1)                    1.097   0.1      0.094   0.1             22                  11.64       0.97
- vtowfk(2)                    758.504  81.2     66.471  80.1             -1                  11.41       0.95
- vtowfk(3)                     21.864   2.3      1.912   2.3             -1                  11.43       0.95

- subtotal                     781.464  83.7     68.477  82.6                                 11.41       0.95

 Partitioning of getghc
- getghc                      3093.173 331.1    268.051 323.2           1440                  11.54       0.96
 
- fourwf%getghc                402.944  43.1     36.041  43.4           1440                  11.18       0.93
- nonlop%getghc               2581.264 276.3    222.109 267.8           1440                  11.62       0.97
- getghc-other                 108.966  11.7      9.902  11.9             -1                  11.00       0.92

- subtotal                    3093.173 331.1    268.051 323.2                                 11.54       0.96

 Partitioning of fourwf (upwards partitioning)
- fourwf                       421.739  45.1     37.837  45.6           5033                  11.15       0.93
 
- fourwf%getghc                402.944  43.1     36.041  43.4           1440                  11.18       0.93
- fourwf%mkrho                  18.795   2.0      1.796   2.2           3593                  10.46       0.87

- subtotal                     421.739  45.1     37.837  45.6                                 11.15       0.93

 Partitioning of mkrho (upwards partitioning)
- mkrho                         22.170   2.4      2.063   2.5             22                  10.75       0.90
 
- mkrho%vtorho                  22.170   2.4      2.063   2.5             22                  10.75       0.90

- subtotal                      22.170   2.4      2.063   2.5                                 10.75       0.90

 Partitioning of inwffil
- inwffil                        3.382   0.4      0.285   0.3              1                  11.89       0.99
 
- inwffil(call newkpt)           3.382   0.4      0.284   0.3              1                  11.89       0.99

- subtotal                       3.382   0.4      0.285   0.3                                 11.89       0.99

 Partitioning of newkpt
- newkpt                         3.382   0.4      0.284   0.3              1                  11.89       0.99
 
- newkpt(call wfconv)            3.382   0.4      0.284   0.3              1                  11.89       0.99

- subtotal                       3.382   0.4      0.284   0.3                                 11.89       0.99

 Partitioning of newrho
- newrho                         5.267   0.6      0.475   0.6             21                  11.10       0.92
 
- fourdp%newrho                  1.454   0.2      0.129   0.2             42                  11.26       0.94

- subtotal                       1.454   0.2      0.129   0.2                                 11.26       0.94

 Partitioning of  fourdp (upwards partitioning)
- fourdp                         6.693   0.7      0.571   0.7            203                  11.71       0.98
 
- fourdp%(other)                 5.239   0.6      0.442   0.5            161                  11.85       0.99
- fourdp%newrho                  1.454   0.2      0.129   0.2             42                  11.26       0.94

- subtotal                       6.693   0.7      0.571   0.7                                 11.71       0.98

 Partitioning of afterscfloop
- afterscfloop                  15.208   1.6      1.335   1.6              1                  11.39       0.95
 
- afterscfloop(forstr)          15.207   1.6      1.335   1.6              1                  11.40       0.95

- subtotal                      15.208   1.6      1.335   1.6                                 11.39       0.95

 Partitioning of forstr
- forstr                        14.538   1.6      1.278   1.5              1                  11.38       0.95
 
- forstr(forstrnps)             10.670   1.1      0.919   1.1              1                  11.61       0.97
- forstr(pawgrnl)                0.231   0.0      0.017   0.0              1                  13.87       1.16
- forstr(forces)                 1.197   0.1      0.103   0.1              1                  11.56       0.96
- forstr(stress)                 2.441   0.3      0.238   0.3              1                  10.23       0.85

- subtotal                      14.538   1.6      1.278   1.5                                 11.38       0.95

 Partitioning of forstrnps
- forstrnps                     10.670   1.1      0.919   1.1              1                  11.61       0.97
 
- forstrnps(bef.loop band)       0.303   0.0      0.028   0.0              1                  11.01       0.92
- forstrnps(nonlop+prep_ba      10.215   1.1      0.876   1.1              1                  11.66       0.97

- subtotal                      10.670   1.1      0.919   1.1                                 11.61       0.97

 Partitioning of outscfcv
- outscfcv                       0.007   0.0      0.007   0.0              1                   1.00       0.08
 

- subtotal                       0.003   0.0      0.003   0.0                                  1.01       0.08

 Partitioning of mkinvovl
- mkinvovl                       1.705   0.2      0.144   0.2              1                  11.84       0.99
 
- mkinvovl(build_d)              0.475   0.1      0.039   0.0              1                  12.08       1.01
- mkinvovl(build_ptp)            1.230   0.1      0.105   0.1              1                  11.75       0.98

- subtotal                       1.705   0.2      0.144   0.2                                 11.84       0.99

 Partitioning of chebfiwf2 core engine
- chebfiwf2                    757.596  81.1     66.388  80.0             24                  11.41       0.95
 
- chebfi2_run                  756.833  81.0     66.316  79.9             24                  11.41       0.95
- chebfi2_getAX_BX             293.447  31.4     25.310  30.5            120                  11.59       0.97
- chebfi2_invovl               422.506  45.2     37.411  45.1             96                  11.29       0.94
- chebfi2_residu                 1.278   0.1      0.095   0.1             24                  13.40       1.12
- chebfi2_RayleighRitz          29.523   3.2      2.596   3.1             24                  11.37       0.95
- chebfi2_pcond                  0.494   0.1      0.035   0.0             24                  14.08       1.17
- chebfi2_RR_q                   0.899   0.1      0.079   0.1             24                  11.32       0.94
- chebfi2_next_p               429.812  46.0     38.073  45.9             96                  11.29       0.94
- chebfi2_amp_f                  1.649   0.2      0.157   0.2             24                  10.50       0.87

- subtotal                    1936.482 207.3    170.074 205.0                                 11.39       0.95
-
-Synchronisation (=leave_test) and MPI calls 
- communic.MPI                   0.360   0.0      0.033   0.0          18552                  10.80       0.90
-
- forstrnps:synchr               0.000   0.0      0.000   0.0              2                   0.00       0.00
- mkrho :MPIrhor                 0.000   0.0      0.000   0.0             22                   1.06       0.09
- subtotal                       0.000   0.0      0.000   0.0                                  0.99       0.08

 Additional information
- timana(1)                      0.038   0.0      0.005   0.0              1                   7.23       0.60
- total timab                    1.346   0.1      0.107   0.1          33566                  12.59       1.05
- fourwf                       421.739  45.1     37.837  45.6           5033                  11.15       0.93
- newocc                         6.322   0.7      0.558   0.7             22                  11.32       0.94
- nonlop(forstr)                10.215   1.1      0.876   1.1              1                  11.66       0.97
- nonlop(total)               2767.369 296.2    238.234 287.2           1655                  11.62       0.97

 Additional information about PAW segments
- forces:pawatm2ff               0.277   0.0      0.022   0.0              1                  12.50       1.04
- stress:pawatm2ff               0.227   0.0      0.017   0.0              1                  13.56       1.13
- setvtr:pawatm2ff               0.115   0.0      0.027   0.0              1                   4.22       0.35
- pawinit                        3.807   0.4      0.324   0.4              2                  11.77       0.98
- vtowfk:rhoij                  18.816   2.0      1.640   2.0             22                  11.47       0.96
- vtorho:pawmkrhoij              3.313   0.4      0.284   0.3             22                  11.68       0.97
- pawmkrho                      19.940   2.1      1.729   2.1             22                  11.53       0.96
- scfcv_core:mknhat              1.221   0.1      0.116   0.1             22                  10.54       0.88
- nhatgrid                       0.951   0.1      0.081   0.1              2                  11.79       0.98
- pawdenpot                     38.343   4.1      3.334   4.0             22                  11.50       0.96
- pawdij/symdij                 16.854   1.8      1.441   1.7             22                  11.70       0.97


 Detailed analysis of some time consuming routines 
                                  tcpu    ncalls  tcpu/ncalls    ndata tcpu/ncalls/ndata
                                 (sec)                (msec)              (microsec)
- fourwf%(pot)                 402.944      1440     279.822    128000       2.186
- fourwf%(den)                  18.795      3593       5.231     64000       0.082
- fourdp                         6.693       203      32.970     64000       0.515
- nonlop(apply)               2738.338      1632    1677.903    120497      13.925
- nonlop(forces)                 0.000         0
- nonlop(forstr)                10.215         1   10215.271    120497      84.776
- projbd                         0.000         0
- xc:pot/=fourdp                 3.945        23     171.531     64000       2.680

================================================================================

 Suggested references for the acknowledgment of ABINIT usage.

 The users of ABINIT have little formal obligations with respect to the ABINIT group
 (those specified in the GNU General Public License, http://www.gnu.org/copyleft/gpl.txt).
 However, it is common practice in the scientific literature,
 to acknowledge the efforts of people that have made the research possible.
 In this spirit, please find below suggested citations of work written by ABINIT developers,
 corresponding to implementations inside of ABINIT that you have used in the present run.
 Note also that it will be of great value to readers of publications presenting these results,
 to read papers enabling them to understand the theoretical formalism and details
 of the ABINIT implementation.
 For information on why they are suggested, see also https://docs.abinit.org/theory/acknowledgments.
-
- [1] Implementation of the Projector Augmented-Wave Method in the ABINIT code.
- M. Torrent, F. Jollet, F. Bottin, G. Zerah, and X. Gonze Comput. Mat. Science 42, 337, (2008).
- Comment : PAW calculations. Strong suggestion to cite this paper.
- DOI and bibtex : see https://docs.abinit.org/theory/bibliography/#torrent2008
-
- [2] Recent developments in the ABINIT software package.
- Computer Phys. Comm. 205, 106 (2016).
- X.Gonze, F.Jollet, F.Abreu Araujo, D.Adams, B.Amadon, T.Applencourt,
- C.Audouze, J.-M.Beuken, J.Bieder, A.Bokhanchuk, E.Bousquet, F.Bruneval
- D.Caliste, M.Cote, F.Dahm, F.Da Pieve, M.Delaveau, M.Di Gennaro,
- B.Dorado, C.Espejo, G.Geneste, L.Genovese, A.Gerossier, M.Giantomassi,
- Y.Gillet, D.R.Hamann, L.He, G.Jomard, J.Laflamme Janssen, S.Le Roux,
- A.Levitt, A.Lherbier, F.Liu, I.Lukacevic, A.Martin, C.Martins,
- M.J.T.Oliveira, S.Ponce, Y.Pouillon, T.Rangel, G.-M.Rignanese,
- A.H.Romero, B.Rousseau, O.Rubel, A.A.Shukri, M.Stankovski, M.Torrent,
- M.J.Van Setten, B.Van Troeye, M.J.Verstraete, D.Waroquier, J.Wiktor,
- B.Xu, A.Zhou, J.W.Zwanziger.
- Comment : the fourth generic paper describing the ABINIT project.
- Note that a version of this paper, that is not formatted for Computer Phys. Comm. 
- is available at https://www.abinit.org/about/ABINIT16.pdf .
- The licence allows the authors to put it on the Web.
- DOI and bibtex : see https://docs.abinit.org/theory/bibliography/#gonze2016
-
- [3] ABINIT : First-principles approach of materials and nanosystem properties.
- Computer Phys. Comm. 180, 2582-2615 (2009).
- X. Gonze, B. Amadon, P.-M. Anglade, J.-M. Beuken, F. Bottin, P. Boulanger, F. Bruneval,
- D. Caliste, R. Caracas, M. Cote, T. Deutsch, L. Genovese, Ph. Ghosez, M. Giantomassi
- S. Goedecker, D.R. Hamann, P. Hermet, F. Jollet, G. Jomard, S. Leroux, M. Mancini, S. Mazevet,
- M.J.T. Oliveira, G. Onida, Y. Pouillon, T. Rangel, G.-M. Rignanese, D. Sangalli, R. Shaltaf,
- M. Torrent, M.J. Verstraete, G. Zerah, J.W. Zwanziger
- Comment : the third generic paper describing the ABINIT project.
- Note that a version of this paper, that is not formatted for Computer Phys. Comm. 
- is available at https://www.abinit.org/about/ABINIT_CPC_v10.pdf .
- The licence allows the authors to put it on the Web.
- DOI and bibtex : see https://docs.abinit.org/theory/bibliography/#gonze2009
-
- [4] A brief introduction to the ABINIT software package.
- Z. Kristallogr. 220, 558-562 (2005).
- X. Gonze, G.-M. Rignanese, M. Verstraete, J.-M. Beuken, Y. Pouillon, R. Caracas, F. Jollet,
- M. Torrent, G. Zerah, M. Mikami, Ph. Ghosez, M. Veithen, J.-Y. Raty, V. Olevano, F. Bruneval,
- L. Reining, R. Godby, G. Onida, D.R. Hamann, and D.C. Allan.
- Comment : the second generic paper describing the ABINIT project. Note that this paper
- should be cited especially if you are using the GW part of ABINIT, as several authors
- of this part are not in the list of authors of the first or third paper.
- The .pdf of the latter paper is available at https://www.abinit.org/about/zfk_0505-06_558-562.pdf.
- Note that it should not redistributed (Copyright by Oldenburg Wissenshaftverlag,
- the licence allows the authors to put it on the Web).
- DOI and bibtex : see https://docs.abinit.org/theory/bibliography/#gonze2005
-
- And optionally:
-
- [5] First-principles computation of material properties : the ABINIT software project. 
- X. Gonze, J.-M. Beuken, R. Caracas, F. Detraux, M. Fuchs, G.-M. Rignanese, L. Sindic,
- M. Verstraete, G. Zerah, F. Jollet, M. Torrent, A. Roy, M. Mikami, Ph. Ghosez, J.-Y. Raty, D.C. Allan.
- Computational Materials Science 25, 478-492 (2002). http://dx.doi.org/10.1016/S0927-0256(02)00325-7
- Comment : the original paper describing the ABINIT project.
- DOI and bibtex : see https://docs.abinit.org/theory/bibliography/#gonze2002
-
- Proc.   0 individual time (sec): cpu=        934.2  wall=         83.0
 
================================================================================
 
 Calculation completed.
.Delivered   0 WARNINGs and   3 COMMENTs to log file.
+Overall time at end (sec) : cpu=        934.2  wall=         83.0
