
.Version 8.11.8 of ABINIT 
.(MPI version, prepared for a x86_64_linux_intel19.0 computer) 

.Copyright (C) 1998-2019 ABINIT group . 
 ABINIT comes with ABSOLUTELY NO WARRANTY.
 It is free software, and you are welcome to redistribute it
 under certain conditions (GNU General Public License,
 see ~abinit/COPYING or http://www.gnu.org/copyleft/gpl.txt).

 ABINIT is a project of the Universite Catholique de Louvain,
 Corning Inc. and other collaborators, see ~abinit/doc/developers/contributors.txt .
 Please read https://docs.abinit.org/theory/acknowledgments for suggested
 acknowledgments of the ABINIT effort.
 For more information, see https://www.abinit.org .

.Starting date : Thu 20 Jun 2019.
- ( at 12h31 )
  
- input  file    -> t03.in
- output file    -> t03_x.out
- root for input  files -> t03_xi
- root for output files -> t03_xo
 
- inpspheads : Reading pseudopotential header in XML form from ../../../Psps_for_tests/ba.hpc.paw.xml
 
 Symmetries : space group Pm -3 m (#221); Bravais cP (primitive cubic)
================================================================================
 Values of the parameters that define the memory need of the present run
     intxc =       0    ionmov =       0      iscf =      17    lmnmax =      18
     lnmax =       6     mgfft =      40  mpssoang =       3    mqgrid =    3001
     natom =      31  nloc_mem =       2    nspden =       1   nspinor =       1
    nsppol =       1      nsym =      48    n1xccc =       1    ntypat =       1
    occopt =       3   xclevel =       1
-    mband =         192        mffmem =           1         mkmem =           1
       mpw =        3887          nfft =       64000          nkpt =           1
 PAW method is used; the additional fine FFT grid is defined by:
   mgfftf=        45    nfftf =     91125
================================================================================
P This job should need less than                      83.897 Mbytes of memory.
  Rough estimation (10% accuracy) of disk space for files :
_ WF disk file :     11.390 Mbytes ; DEN or POT disk file :      0.697 Mbytes.
================================================================================
 
--------------------------------------------------------------------------------
------------- Echo of variables that govern the present computation ------------
--------------------------------------------------------------------------------
-
- outvars: echo of selected default values                                      
-   iomode0 =  0 , fftalg0 =312 , wfoptalg0 = 10
-
- outvars: echo of global parameters not present in the input file              
-  max_nthreads =    4
-
 -outvars: echo values of preprocessed input variables --------
-          iomode           1
            acell      1.5340000000E+01  1.5340000000E+01  1.5340000000E+01 Bohr
              amu      1.37327000E+02
      chksymbreak           0
     densfor_pred           6
             ecut      8.00000000E+00 Hartree
-          fftalg         312
           istwfk        1
              ixc           7
           kptopt           0
P           mkmem           1
            natom          31
            nband         192
            ngfft          40      40      40
          ngfftdg          45      45      45
             nkpt           1
            nstep          40
             nsym          48
           ntypat           1
              occ      2.000000  2.000000  2.000000  2.000000  2.000000  2.000000
                       2.000000  2.000000  2.000000  2.000000  2.000000  2.000000
                       2.000000  2.000000  2.000000  2.000000  2.000000  2.000000
                       2.000000  2.000000  2.000000  2.000000  2.000000  2.000000
                       2.000000  2.000000  2.000000  2.000000  2.000000  2.000000
                       2.000000  2.000000  2.000000  2.000000  2.000000  2.000000
                       2.000000  2.000000  2.000000  2.000000  2.000000  2.000000
                       2.000000  2.000000  2.000000  2.000000  2.000000  2.000000
                       2.000000  2.000000  2.000000  2.000000  2.000000  2.000000
                       2.000000  2.000000  2.000000  2.000000  2.000000  2.000000
                       2.000000  2.000000  2.000000  2.000000  2.000000  2.000000
                       2.000000  2.000000  2.000000  2.000000  2.000000  2.000000
                       2.000000  2.000000  2.000000  2.000000  2.000000  2.000000
                       2.000000  2.000000  2.000000  2.000000  2.000000  2.000000
                       2.000000  2.000000  2.000000  2.000000  2.000000  2.000000
                       2.000000  2.000000  2.000000  2.000000  2.000000  2.000000
                       2.000000  2.000000  2.000000  2.000000  2.000000  2.000000
                       2.000000  2.000000  2.000000  2.000000  2.000000  2.000000
                       2.000000  2.000000  2.000000  2.000000  2.000000  2.000000
                       2.000000  2.000000  2.000000  2.000000  2.000000  2.000000
                       2.000000  2.000000  2.000000  2.000000  2.000000  2.000000
                       2.000000  2.000000  2.000000  2.000000  2.000000  2.000000
                       2.000000  2.000000  2.000000  2.000000  2.000000  2.000000
                       2.000000  2.000000  2.000000  2.000000  2.000000  2.000000
                       2.000000  2.000000  2.000000  2.000000  2.000000  2.000000
                       2.000000  2.000000  2.000000  2.000000  2.000000  0.000000
                       0.000000  0.000000  0.000000  0.000000  0.000000  0.000000
                       0.000000  0.000000  0.000000  0.000000  0.000000  0.000000
                       0.000000  0.000000  0.000000  0.000000  0.000000  0.000000
                       0.000000  0.000000  0.000000  0.000000  0.000000  0.000000
                       0.000000  0.000000  0.000000  0.000000  0.000000  0.000000
                       0.000000  0.000000  0.000000  0.000000  0.000000  0.000000
           occopt           3
        paral_kgb           1
        pawecutdg      1.00000000E+01 Hartree
           prtden           0
           prteig           0
            prtwf           0
          spgroup         221
           symrel      1  0  0   0  1  0   0  0  1      -1  0  0   0 -1  0   0  0 -1
                      -1  0  0   0  1  0   0  0 -1       1  0  0   0 -1  0   0  0  1
                      -1  0  0   0 -1  0   0  0  1       1  0  0   0  1  0   0  0 -1
                       1  0  0   0 -1  0   0  0 -1      -1  0  0   0  1  0   0  0  1
                       0  1  0   1  0  0   0  0  1       0 -1  0  -1  0  0   0  0 -1
                       0 -1  0   1  0  0   0  0 -1       0  1  0  -1  0  0   0  0  1
                       0 -1  0  -1  0  0   0  0  1       0  1  0   1  0  0   0  0 -1
                       0  1  0  -1  0  0   0  0 -1       0 -1  0   1  0  0   0  0  1
                       0  0  1   1  0  0   0  1  0       0  0 -1  -1  0  0   0 -1  0
                       0  0 -1   1  0  0   0 -1  0       0  0  1  -1  0  0   0  1  0
                       0  0 -1  -1  0  0   0  1  0       0  0  1   1  0  0   0 -1  0
                       0  0  1  -1  0  0   0 -1  0       0  0 -1   1  0  0   0  1  0
                       1  0  0   0  0  1   0  1  0      -1  0  0   0  0 -1   0 -1  0
                      -1  0  0   0  0  1   0 -1  0       1  0  0   0  0 -1   0  1  0
                      -1  0  0   0  0 -1   0  1  0       1  0  0   0  0  1   0 -1  0
                       1  0  0   0  0 -1   0 -1  0      -1  0  0   0  0  1   0  1  0
                       0  1  0   0  0  1   1  0  0       0 -1  0   0  0 -1  -1  0  0
                       0 -1  0   0  0  1  -1  0  0       0  1  0   0  0 -1   1  0  0
                       0 -1  0   0  0 -1   1  0  0       0  1  0   0  0  1  -1  0  0
                       0  1  0   0  0 -1  -1  0  0       0 -1  0   0  0  1   1  0  0
                       0  0  1   0  1  0   1  0  0       0  0 -1   0 -1  0  -1  0  0
                       0  0 -1   0  1  0  -1  0  0       0  0  1   0 -1  0   1  0  0
                       0  0 -1   0 -1  0   1  0  0       0  0  1   0  1  0  -1  0  0
                       0  0  1   0 -1  0  -1  0  0       0  0 -1   0  1  0   1  0  0
           timopt          -3
           toldfe      1.00000000E-05 Hartree
           tsmear      2.00000000E-03 Hartree
            typat      1  1  1  1  1  1  1  1  1  1  1  1  1  1  1  1  1  1  1  1
                       1  1  1  1  1  1  1  1  1  1  1
           useylm           1
         wfoptalg         114
           xangst      2.0293945949E+00  2.0293945949E+00  0.0000000000E+00
                       2.0293945949E+00  0.0000000000E+00  2.0293945949E+00
                       0.0000000000E+00  2.0293945949E+00  2.0293945949E+00
                       0.0000000000E+00  0.0000000000E+00  4.0587891899E+00
                       2.0293945949E+00  2.0293945949E+00  4.0587891899E+00
                       2.0293945949E+00  0.0000000000E+00  6.0881837848E+00
                       0.0000000000E+00  2.0293945949E+00  6.0881837848E+00
                       0.0000000000E+00  4.0587891899E+00  0.0000000000E+00
                       2.0293945949E+00  6.0881837848E+00  0.0000000000E+00
                       2.0293945949E+00  4.0587891899E+00  2.0293945949E+00
                       0.0000000000E+00  6.0881837848E+00  2.0293945949E+00
                       0.0000000000E+00  4.0587891899E+00  4.0587891899E+00
                       2.0293945949E+00  6.0881837848E+00  4.0587891899E+00
                       2.0293945949E+00  4.0587891899E+00  6.0881837848E+00
                       0.0000000000E+00  6.0881837848E+00  6.0881837848E+00
                       4.0587891899E+00  0.0000000000E+00  0.0000000000E+00
                       6.0881837848E+00  2.0293945949E+00  0.0000000000E+00
                       6.0881837848E+00  0.0000000000E+00  2.0293945949E+00
                       4.0587891899E+00  2.0293945949E+00  2.0293945949E+00
                       4.0587891899E+00  0.0000000000E+00  4.0587891899E+00
                       6.0881837848E+00  2.0293945949E+00  4.0587891899E+00
                       6.0881837848E+00  0.0000000000E+00  6.0881837848E+00
                       4.0587891899E+00  2.0293945949E+00  6.0881837848E+00
                       4.0587891899E+00  4.0587891899E+00  0.0000000000E+00
                       6.0881837848E+00  6.0881837848E+00  0.0000000000E+00
                       6.0881837848E+00  4.0587891899E+00  2.0293945949E+00
                       4.0587891899E+00  6.0881837848E+00  2.0293945949E+00
                       4.0587891899E+00  4.0587891899E+00  4.0587891899E+00
                       6.0881837848E+00  6.0881837848E+00  4.0587891899E+00
                       6.0881837848E+00  4.0587891899E+00  6.0881837848E+00
                       4.0587891899E+00  6.0881837848E+00  6.0881837848E+00
            xcart      3.8350000000E+00  3.8350000000E+00  0.0000000000E+00
                       3.8350000000E+00  0.0000000000E+00  3.8350000000E+00
                       0.0000000000E+00  3.8350000000E+00  3.8350000000E+00
                       0.0000000000E+00  0.0000000000E+00  7.6700000000E+00
                       3.8350000000E+00  3.8350000000E+00  7.6700000000E+00
                       3.8350000000E+00  0.0000000000E+00  1.1505000000E+01
                       0.0000000000E+00  3.8350000000E+00  1.1505000000E+01
                       0.0000000000E+00  7.6700000000E+00  0.0000000000E+00
                       3.8350000000E+00  1.1505000000E+01  0.0000000000E+00
                       3.8350000000E+00  7.6700000000E+00  3.8350000000E+00
                       0.0000000000E+00  1.1505000000E+01  3.8350000000E+00
                       0.0000000000E+00  7.6700000000E+00  7.6700000000E+00
                       3.8350000000E+00  1.1505000000E+01  7.6700000000E+00
                       3.8350000000E+00  7.6700000000E+00  1.1505000000E+01
                       0.0000000000E+00  1.1505000000E+01  1.1505000000E+01
                       7.6700000000E+00  0.0000000000E+00  0.0000000000E+00
                       1.1505000000E+01  3.8350000000E+00  0.0000000000E+00
                       1.1505000000E+01  0.0000000000E+00  3.8350000000E+00
                       7.6700000000E+00  3.8350000000E+00  3.8350000000E+00
                       7.6700000000E+00  0.0000000000E+00  7.6700000000E+00
                       1.1505000000E+01  3.8350000000E+00  7.6700000000E+00
                       1.1505000000E+01  0.0000000000E+00  1.1505000000E+01
                       7.6700000000E+00  3.8350000000E+00  1.1505000000E+01
                       7.6700000000E+00  7.6700000000E+00  0.0000000000E+00
                       1.1505000000E+01  1.1505000000E+01  0.0000000000E+00
                       1.1505000000E+01  7.6700000000E+00  3.8350000000E+00
                       7.6700000000E+00  1.1505000000E+01  3.8350000000E+00
                       7.6700000000E+00  7.6700000000E+00  7.6700000000E+00
                       1.1505000000E+01  1.1505000000E+01  7.6700000000E+00
                       1.1505000000E+01  7.6700000000E+00  1.1505000000E+01
                       7.6700000000E+00  1.1505000000E+01  1.1505000000E+01
             xred      2.5000000000E-01  2.5000000000E-01  0.0000000000E+00
                       2.5000000000E-01  0.0000000000E+00  2.5000000000E-01
                       0.0000000000E+00  2.5000000000E-01  2.5000000000E-01
                       0.0000000000E+00  0.0000000000E+00  5.0000000000E-01
                       2.5000000000E-01  2.5000000000E-01  5.0000000000E-01
                       2.5000000000E-01  0.0000000000E+00  7.5000000000E-01
                       0.0000000000E+00  2.5000000000E-01  7.5000000000E-01
                       0.0000000000E+00  5.0000000000E-01  0.0000000000E+00
                       2.5000000000E-01  7.5000000000E-01  0.0000000000E+00
                       2.5000000000E-01  5.0000000000E-01  2.5000000000E-01
                       0.0000000000E+00  7.5000000000E-01  2.5000000000E-01
                       0.0000000000E+00  5.0000000000E-01  5.0000000000E-01
                       2.5000000000E-01  7.5000000000E-01  5.0000000000E-01
                       2.5000000000E-01  5.0000000000E-01  7.5000000000E-01
                       0.0000000000E+00  7.5000000000E-01  7.5000000000E-01
                       5.0000000000E-01  0.0000000000E+00  0.0000000000E+00
                       7.5000000000E-01  2.5000000000E-01  0.0000000000E+00
                       7.5000000000E-01  0.0000000000E+00  2.5000000000E-01
                       5.0000000000E-01  2.5000000000E-01  2.5000000000E-01
                       5.0000000000E-01  0.0000000000E+00  5.0000000000E-01
                       7.5000000000E-01  2.5000000000E-01  5.0000000000E-01
                       7.5000000000E-01  0.0000000000E+00  7.5000000000E-01
                       5.0000000000E-01  2.5000000000E-01  7.5000000000E-01
                       5.0000000000E-01  5.0000000000E-01  0.0000000000E+00
                       7.5000000000E-01  7.5000000000E-01  0.0000000000E+00
                       7.5000000000E-01  5.0000000000E-01  2.5000000000E-01
                       5.0000000000E-01  7.5000000000E-01  2.5000000000E-01
                       5.0000000000E-01  5.0000000000E-01  5.0000000000E-01
                       7.5000000000E-01  7.5000000000E-01  5.0000000000E-01
                       7.5000000000E-01  5.0000000000E-01  7.5000000000E-01
                       5.0000000000E-01  7.5000000000E-01  7.5000000000E-01
            znucl       56.00000
 
================================================================================
 
 chkinp: Checking input parameters for consistency.
 
================================================================================
== DATASET  1 ==================================================================
-   nproc =    1
 
 Exchange-correlation functional for the present dataset will be:
  LDA: Perdew-Wang 92 LSD fit to Ceperley-Alder data - ixc=7
 Citation for XC functional:
  J.P.Perdew and Y.Wang, PRB 45, 13244 (1992)
 
 Real(R)+Recip(G) space primitive vectors, cartesian coordinates (Bohr,Bohr^-1):
 R(1)= 15.3400000  0.0000000  0.0000000  G(1)=  0.0651890  0.0000000  0.0000000
 R(2)=  0.0000000 15.3400000  0.0000000  G(2)=  0.0000000  0.0651890  0.0000000
 R(3)=  0.0000000  0.0000000 15.3400000  G(3)=  0.0000000  0.0000000  0.0651890
 Unit cell volume ucvol=  3.6097413E+03 bohr^3
 Angles (23,13,12)=  9.00000000E+01  9.00000000E+01  9.00000000E+01 degrees
 
 Coarse grid specifications (used for wave-functions):
 
 getcut: wavevector=  0.0000  0.0000  0.0000  ngfft=  40  40  40
         ecut(hartree)=      8.000   => boxcut(ratio)=   2.04797
 
 Fine grid specifications (used for densities):
 
 getcut: wavevector=  0.0000  0.0000  0.0000  ngfft=  45  45  45
         ecut(hartree)=     10.000   => boxcut(ratio)=   2.01494
 
--- Pseudopotential description ------------------------------------------------
- pspini: atom type   1  psp file is ../../../Psps_for_tests/ba.hpc.paw.xml
- pspatm: opening atomic psp file    ../../../Psps_for_tests/ba.hpc.paw.xml
- pspatm : Reading pseudopotential header in XML form from ../../../Psps_for_tests/ba.hpc.paw.xml
 Pseudopotential format is: paw10
 basis_size (lnmax)=  6 (lmn_size= 18), orbitals=   0   0   1   1   2   2
 Spheres core radius: rc_sph= 2.31518568
 1 radial meshes are used:
  - mesh 1: r(i)=AA*[exp(BB*(i-1))-1], size=1500 , AA= 0.15658E-03 BB= 0.87685E-02
 Shapefunction is SIN type: shapef(r)=[sin(pi*r/rshp)/(pi*r/rshp)]**2
 Radius for shape functions =  2.01210979
 mmax= 1500
 Radial grid used for partial waves is grid 1
 Radial grid used for projectors is grid 1
 Radial grid used for (t)core density is grid 1
 Radial grid used for Vloc is grid 1
 Radial grid used for pseudo valence density is grid 1
 Mesh size for Vloc has been set to 1341 to avoid numerical noise.
 Compensation charge density is not taken into account in XC energy/potential
 pspatm: atomic psp has been read  and splines computed
 
   5.70955898E+05                                ecore*ucvol(ha*bohr**3)
--------------------------------------------------------------------------------
 
_setup2: Arith. and geom. avg. npw (full set) are    3887.000    3887.000
 
================================================================================
 
     iter   Etot(hartree)      deltaE(h)  residm     nres2
 ETOT  1  -800.81899949480    -8.008E+02 6.132E-03 9.950E+00
 ETOT  2  -800.54467140435     2.743E-01 9.669E-04 1.595E+00
 ETOT  3  -800.43636334422     1.083E-01 6.620E-04 5.309E-01
 ETOT  4  -800.41891410330     1.745E-02 1.572E-03 1.314E-01
 ETOT  5  -800.42661084626    -7.697E-03 1.986E-04 1.144E-02
 ETOT  6  -800.42709210481    -4.813E-04 3.484E-05 2.790E-03
 ETOT  7  -800.42707486732     1.724E-05 3.533E-05 1.666E-04
 ETOT  8  -800.42709035544    -1.549E-05 1.287E-05 1.178E-05
 ETOT  9  -800.42709085943    -5.040E-07 2.470E-05 3.410E-06
 ETOT 10  -800.42709081748     4.195E-08 1.244E-05 5.659E-07
 
 At SCF step   10, etot is converged : 
  for the second time, diff in etot=  4.195E-08 < toldfe=  1.000E-05
 
 Cartesian components of stress tensor (hartree/bohr^3)
  sigma(1 1)= -4.33643574E-03  sigma(3 2)=  0.00000000E+00
  sigma(2 2)= -4.33643574E-03  sigma(3 1)=  0.00000000E+00
  sigma(3 3)= -4.33643574E-03  sigma(2 1)=  0.00000000E+00
 
 Integrated electronic density in atomic spheres:
 ------------------------------------------------
 Atom  Sphere_radius  Integrated_density
    1        2.31519          7.04706914
    2        2.31519          7.04706914
    3        2.31519          7.04706914
    4        2.31519          6.96785520
    5        2.31519          7.10071392
    6        2.31519          7.04706914
    7        2.31519          7.04706914
    8        2.31519          6.96785520
    9        2.31519          7.04706914
   10        2.31519          7.10071392
   11        2.31519          7.04706914
   12        2.31519          7.03236727
   13        2.31519          7.10071392
   14        2.31519          7.10071392
   15        2.31519          7.04706914
   16        2.31519          6.96785520
   17        2.31519          7.04706914
   18        2.31519          7.04706914
   19        2.31519          7.10071392
   20        2.31519          7.03236727
   21        2.31519          7.10071392
   22        2.31519          7.04706914
   23        2.31519          7.10071392
   24        2.31519          7.03236727
   25        2.31519          7.04706914
   26        2.31519          7.10071392
   27        2.31519          7.10071392
   28        2.31519          7.11098330
   29        2.31519          7.10071392
   30        2.31519          7.10071392
   31        2.31519          7.10071392
 
 PAW TEST:
 ==== Compensation charge inside spheres ============
 The following values must be close to each other ...
 Compensation charge over spherical meshes =    -83.808353162506137
 Compensation charge over fine fft grid    =    -83.807309648017196
 
 ==== Results concerning PAW augmentation regions ====
 
 Total pseudopotential strength Dij (hartree):
 Atom #  1
   0.41420   0.06332   0.00046   0.00000   0.00046   0.00011   0.00000   0.00011  -0.00012   0.00000   0.00003   0.00000 ...
   0.06332   0.00885   0.00010   0.00000   0.00010   0.00008   0.00000   0.00008  -0.00003   0.00000   0.00001   0.00000 ...
   0.00046   0.00010  -0.17382   0.00000  -0.00017   0.00055   0.00000  -0.00008   0.00018   0.00000  -0.00009   0.00000 ...
   0.00000   0.00000   0.00000  -0.17373   0.00000   0.00000   0.00062   0.00000   0.00000   0.00009   0.00000   0.00009 ...
   0.00046   0.00010  -0.00017   0.00000  -0.17382  -0.00008   0.00000   0.00055   0.00018   0.00000  -0.00009   0.00000 ...
   0.00011   0.00008   0.00055   0.00000  -0.00008  -1.14548   0.00000  -0.00024   0.00017   0.00000  -0.00008   0.00000 ...
   0.00000   0.00000   0.00000   0.00062   0.00000   0.00000  -1.14528   0.00000   0.00000   0.00007   0.00000   0.00007 ...
   0.00011   0.00008  -0.00008   0.00000   0.00055  -0.00024   0.00000  -1.14548   0.00017   0.00000  -0.00008   0.00000 ...
  -0.00012  -0.00003   0.00018   0.00000   0.00018   0.00017   0.00000   0.00017  -0.03054   0.00000   0.00002   0.00000 ...
   0.00000   0.00000   0.00000   0.00009   0.00000   0.00000   0.00007   0.00000   0.00000  -0.03053   0.00000  -0.00002 ...
   0.00003   0.00001  -0.00009   0.00000  -0.00009  -0.00008   0.00000  -0.00008   0.00002   0.00000  -0.03055   0.00000 ...
   0.00000   0.00000   0.00000   0.00009   0.00000   0.00000   0.00007   0.00000   0.00000  -0.00002   0.00000  -0.03053 ...
   ...  only 12  components have been written...
 Atom # 31
   0.41592   0.06360   0.00017   0.00017   0.00000  -0.00007  -0.00007   0.00000   0.00000  -0.00006  -0.00001   0.00000 ...
   0.06360   0.00890   0.00003   0.00003   0.00000  -0.00000  -0.00000   0.00000   0.00000  -0.00001  -0.00000   0.00000 ...
   0.00017   0.00003  -0.17307  -0.00008   0.00000   0.00077  -0.00004   0.00000   0.00000   0.00003  -0.00001   0.00000 ...
   0.00017   0.00003  -0.00008  -0.17307   0.00000  -0.00004   0.00077   0.00000   0.00000   0.00003   0.00003   0.00000 ...
   0.00000   0.00000   0.00000   0.00000  -0.17300   0.00000   0.00000   0.00083   0.00002   0.00000   0.00000   0.00002 ...
  -0.00007  -0.00000   0.00077  -0.00004   0.00000  -1.14463  -0.00010   0.00000   0.00000   0.00001   0.00001   0.00000 ...
  -0.00007  -0.00000  -0.00004   0.00077   0.00000  -0.00010  -1.14463   0.00000   0.00000   0.00001  -0.00000   0.00000 ...
   0.00000   0.00000   0.00000   0.00000   0.00083   0.00000   0.00000  -1.14454  -0.00001   0.00000   0.00000  -0.00001 ...
   0.00000   0.00000   0.00000   0.00000   0.00002   0.00000   0.00000  -0.00001  -0.03040   0.00000   0.00000  -0.00001 ...
  -0.00006  -0.00001   0.00003   0.00003   0.00000   0.00001   0.00001   0.00000   0.00000  -0.03042  -0.00001   0.00000 ...
  -0.00001  -0.00000  -0.00001   0.00003   0.00000   0.00001  -0.00000   0.00000   0.00000  -0.00001  -0.03044   0.00000 ...
   0.00000   0.00000   0.00000   0.00000   0.00002   0.00000   0.00000  -0.00001  -0.00001   0.00000   0.00000  -0.03040 ...
   ...  only 12  components have been written...
 
 
 Augmentation waves occupancies Rhoij:
 Atom #  1
   2.09431  -0.11961  -0.00176   0.00000  -0.00176  -0.00027   0.00000  -0.00027   0.01801   0.00000  -0.05588   0.00000 ...
  -0.11961   0.24832   0.00203   0.00000   0.00203   0.00129   0.00000   0.00129  -0.02370   0.00000   0.06527   0.00000 ...
  -0.00176   0.00203   1.86540   0.00000   0.01688   0.01084   0.00000  -0.00191   0.01054   0.00000  -0.02928   0.00000 ...
   0.00000   0.00000   0.00000   1.88629   0.00000   0.00000   0.00874   0.00000   0.00000   0.01241   0.00000   0.01241 ...
  -0.00176   0.00203   0.01688   0.00000   1.86540  -0.00191   0.00000   0.01084   0.01054   0.00000  -0.02928   0.00000 ...
  -0.00027   0.00129   0.01084   0.00000  -0.00191   0.00151   0.00000   0.00009   0.00057   0.00000   0.00213   0.00000 ...
   0.00000   0.00000   0.00000   0.00874   0.00000   0.00000   0.00183   0.00000   0.00000  -0.00034   0.00000  -0.00034 ...
  -0.00027   0.00129  -0.00191   0.00000   0.01084   0.00009   0.00000   0.00151   0.00057   0.00000   0.00213   0.00000 ...
   0.01801  -0.02370   0.01054   0.00000   0.01054   0.00057   0.00000   0.00057   0.43418   0.00000   0.02355   0.00000 ...
   0.00000   0.00000   0.00000   0.01241   0.00000   0.00000  -0.00034   0.00000   0.00000   0.44883   0.00000  -0.04515 ...
  -0.05588   0.06527  -0.02928   0.00000  -0.02928   0.00213   0.00000   0.00213   0.02355   0.00000   0.55722   0.00000 ...
   0.00000   0.00000   0.00000   0.01241   0.00000   0.00000  -0.00034   0.00000   0.00000  -0.04515   0.00000   0.44883 ...
   ...  only 12  components have been written...
 Atom # 31
   2.11792  -0.14755  -0.00120  -0.00120   0.00000  -0.00000  -0.00000   0.00000   0.00000  -0.00919  -0.00977   0.00000 ...
  -0.14755   0.28770   0.00217   0.00217   0.00000  -0.00018  -0.00018   0.00000   0.00000   0.00836   0.00921   0.00000 ...
  -0.00120   0.00217   1.85303   0.00730   0.00000   0.01216  -0.00075   0.00000   0.00000   0.00377  -0.00855   0.00000 ...
  -0.00120   0.00217   0.00730   1.85303   0.00000  -0.00075   0.01216   0.00000   0.00000   0.00377  -0.00162   0.00000 ...
   0.00000   0.00000   0.00000   0.00000   1.88139   0.00000   0.00000   0.00959  -0.01496   0.00000   0.00000  -0.01496 ...
  -0.00000  -0.00018   0.01216  -0.00075   0.00000   0.00156   0.00004   0.00000   0.00000  -0.00017   0.00068   0.00000 ...
  -0.00000  -0.00018  -0.00075   0.01216   0.00000   0.00004   0.00156   0.00000   0.00000  -0.00017   0.00057   0.00000 ...
   0.00000   0.00000   0.00000   0.00000   0.00959   0.00000   0.00000   0.00185   0.00167   0.00000   0.00000   0.00167 ...
   0.00000   0.00000   0.00000   0.00000  -0.01496   0.00000   0.00000   0.00167   0.49331   0.00000   0.00000  -0.03674 ...
  -0.00919   0.00836   0.00377   0.00377   0.00000  -0.00017  -0.00017   0.00000   0.00000   0.46378   0.01341   0.00000 ...
  -0.00977   0.00921  -0.00855  -0.00162   0.00000   0.00068   0.00057   0.00000   0.00000   0.01341   0.53497   0.00000 ...
   0.00000   0.00000   0.00000   0.00000  -0.01496   0.00000   0.00000   0.00167  -0.03674   0.00000   0.00000   0.49331 ...
   ...  only 12  components have been written...
 
 
================================================================================
 
 ----iterations are completed or convergence reached----
 
 Mean square residual over all n,k,spin=   12.001E-08; max=  12.444E-06
 reduced coordinates (array xred) for   31 atoms
       0.250000000000      0.250000000000      0.000000000000
       0.250000000000      0.000000000000      0.250000000000
       0.000000000000      0.250000000000      0.250000000000
       0.000000000000      0.000000000000      0.500000000000
       0.250000000000      0.250000000000      0.500000000000
       0.250000000000      0.000000000000      0.750000000000
       0.000000000000      0.250000000000      0.750000000000
       0.000000000000      0.500000000000      0.000000000000
       0.250000000000      0.750000000000      0.000000000000
       0.250000000000      0.500000000000      0.250000000000
       0.000000000000      0.750000000000      0.250000000000
       0.000000000000      0.500000000000      0.500000000000
       0.250000000000      0.750000000000      0.500000000000
       0.250000000000      0.500000000000      0.750000000000
       0.000000000000      0.750000000000      0.750000000000
       0.500000000000      0.000000000000      0.000000000000
       0.750000000000      0.250000000000      0.000000000000
       0.750000000000      0.000000000000      0.250000000000
       0.500000000000      0.250000000000      0.250000000000
       0.500000000000      0.000000000000      0.500000000000
       0.750000000000      0.250000000000      0.500000000000
       0.750000000000      0.000000000000      0.750000000000
       0.500000000000      0.250000000000      0.750000000000
       0.500000000000      0.500000000000      0.000000000000
       0.750000000000      0.750000000000      0.000000000000
       0.750000000000      0.500000000000      0.250000000000
       0.500000000000      0.750000000000      0.250000000000
       0.500000000000      0.500000000000      0.500000000000
       0.750000000000      0.750000000000      0.500000000000
       0.750000000000      0.500000000000      0.750000000000
       0.500000000000      0.750000000000      0.750000000000
 rms dE/dt=  2.0486E-01; max dE/dt=  3.9188E-01; dE/dt below (all hartree)
    1       0.391883792334      0.391883792334     -0.000000000000
    2       0.391883792334     -0.000000000000      0.391883792334
    3      -0.000000000000      0.391883792334      0.391883792334
    4       0.000000000000      0.000000000000      0.000000000000
    5      -0.095153667241     -0.095153667241     -0.000000000000
    6       0.391883792334     -0.000000000000     -0.391883792334
    7       0.000000000000      0.391883792334     -0.391883792334
    8       0.000000000000      0.000000000000      0.000000000000
    9       0.391883792334     -0.391883792334     -0.000000000000
   10      -0.095153667241     -0.000000000000     -0.095153667241
   11       0.000000000000     -0.391883792334      0.391883792334
   12       0.000000000000      0.000000000000      0.000000000000
   13      -0.095153667241      0.095153667241     -0.000000000000
   14      -0.095153667241     -0.000000000000      0.095153667241
   15      -0.000000000000     -0.391883792334     -0.391883792334
   16       0.000000000000      0.000000000000      0.000000000000
   17      -0.391883792334      0.391883792334      0.000000000000
   18      -0.391883792334     -0.000000000000      0.391883792334
   19      -0.000000000000     -0.095153667241     -0.095153667241
   20       0.000000000000      0.000000000000      0.000000000000
   21       0.095153667241     -0.095153667241     -0.000000000000
   22      -0.391883792334      0.000000000000     -0.391883792334
   23      -0.000000000000     -0.095153667241      0.095153667241
   24       0.000000000000      0.000000000000      0.000000000000
   25      -0.391883792334     -0.391883792334      0.000000000000
   26       0.095153667241     -0.000000000000     -0.095153667241
   27      -0.000000000000      0.095153667241     -0.095153667241
   28       0.000000000000      0.000000000000      0.000000000000
   29       0.095153667241      0.095153667241     -0.000000000000
   30       0.095153667241     -0.000000000000      0.095153667241
   31      -0.000000000000      0.095153667241      0.095153667241
 
 cartesian coordinates (angstrom) at end:
    1      2.02939459494265     2.02939459494265     0.00000000000000
    2      2.02939459494265     0.00000000000000     2.02939459494265
    3      0.00000000000000     2.02939459494265     2.02939459494265
    4      0.00000000000000     0.00000000000000     4.05878918988530
    5      2.02939459494265     2.02939459494265     4.05878918988530
    6      2.02939459494265     0.00000000000000     6.08818378482795
    7      0.00000000000000     2.02939459494265     6.08818378482795
    8      0.00000000000000     4.05878918988530     0.00000000000000
    9      2.02939459494265     6.08818378482795     0.00000000000000
   10      2.02939459494265     4.05878918988530     2.02939459494265
   11      0.00000000000000     6.08818378482795     2.02939459494265
   12      0.00000000000000     4.05878918988530     4.05878918988530
   13      2.02939459494265     6.08818378482795     4.05878918988530
   14      2.02939459494265     4.05878918988530     6.08818378482795
   15      0.00000000000000     6.08818378482795     6.08818378482795
   16      4.05878918988530     0.00000000000000     0.00000000000000
   17      6.08818378482795     2.02939459494265     0.00000000000000
   18      6.08818378482795     0.00000000000000     2.02939459494265
   19      4.05878918988530     2.02939459494265     2.02939459494265
   20      4.05878918988530     0.00000000000000     4.05878918988530
   21      6.08818378482795     2.02939459494265     4.05878918988530
   22      6.08818378482795     0.00000000000000     6.08818378482795
   23      4.05878918988530     2.02939459494265     6.08818378482795
   24      4.05878918988530     4.05878918988530     0.00000000000000
   25      6.08818378482795     6.08818378482795     0.00000000000000
   26      6.08818378482795     4.05878918988530     2.02939459494265
   27      4.05878918988530     6.08818378482795     2.02939459494265
   28      4.05878918988530     4.05878918988530     4.05878918988530
   29      6.08818378482795     6.08818378482795     4.05878918988530
   30      6.08818378482795     4.05878918988530     6.08818378482795
   31      4.05878918988530     6.08818378482795     6.08818378482795
 
 cartesian forces (hartree/bohr) at end:
    1     -0.02554653144289    -0.02554653144289     0.00000000000000
    2     -0.02554653144289     0.00000000000000    -0.02554653144289
    3     -0.00000000000000    -0.02554653144289    -0.02554653144289
    4     -0.00000000000000     0.00000000000000     0.00000000000000
    5      0.00620297700399     0.00620297700399     0.00000000000000
    6     -0.02554653144289     0.00000000000000     0.02554653144289
    7     -0.00000000000000    -0.02554653144289     0.02554653144289
    8     -0.00000000000000     0.00000000000000     0.00000000000000
    9     -0.02554653144289     0.02554653144289     0.00000000000000
   10      0.00620297700399     0.00000000000000     0.00620297700399
   11     -0.00000000000000     0.02554653144289    -0.02554653144289
   12     -0.00000000000000     0.00000000000000     0.00000000000000
   13      0.00620297700399    -0.00620297700399     0.00000000000000
   14      0.00620297700399     0.00000000000000    -0.00620297700399
   15     -0.00000000000000     0.02554653144289     0.02554653144289
   16     -0.00000000000000     0.00000000000000     0.00000000000000
   17      0.02554653144289    -0.02554653144289     0.00000000000000
   18      0.02554653144289     0.00000000000000    -0.02554653144289
   19     -0.00000000000000     0.00620297700399     0.00620297700399
   20     -0.00000000000000     0.00000000000000     0.00000000000000
   21     -0.00620297700399     0.00620297700399     0.00000000000000
   22      0.02554653144289     0.00000000000000     0.02554653144289
   23     -0.00000000000000     0.00620297700399    -0.00620297700399
   24     -0.00000000000000     0.00000000000000     0.00000000000000
   25      0.02554653144289     0.02554653144289     0.00000000000000
   26     -0.00620297700399     0.00000000000000     0.00620297700399
   27     -0.00000000000000    -0.00620297700399     0.00620297700399
   28     -0.00000000000000     0.00000000000000     0.00000000000000
   29     -0.00620297700399    -0.00620297700399     0.00000000000000
   30     -0.00620297700399     0.00000000000000    -0.00620297700399
   31     -0.00000000000000    -0.00620297700399    -0.00620297700399
 frms,max,avg= 1.3354735E-02 2.5546531E-02   0.000E+00  0.000E+00  0.000E+00 h/b
 
 cartesian forces (eV/Angstrom) at end:
    1     -1.31365535419820    -1.31365535419820     0.00000000000000
    2     -1.31365535419820     0.00000000000000    -1.31365535419820
    3     -0.00000000000000    -1.31365535419820    -1.31365535419820
    4     -0.00000000000000     0.00000000000000     0.00000000000000
    5      0.31896987547903     0.31896987547903     0.00000000000000
    6     -1.31365535419820     0.00000000000000     1.31365535419820
    7     -0.00000000000000    -1.31365535419820     1.31365535419820
    8     -0.00000000000000     0.00000000000000     0.00000000000000
    9     -1.31365535419820     1.31365535419820     0.00000000000000
   10      0.31896987547903     0.00000000000000     0.31896987547903
   11     -0.00000000000000     1.31365535419820    -1.31365535419820
   12     -0.00000000000000     0.00000000000000     0.00000000000000
   13      0.31896987547903    -0.31896987547903     0.00000000000000
   14      0.31896987547903     0.00000000000000    -0.31896987547903
   15     -0.00000000000000     1.31365535419820     1.31365535419820
   16     -0.00000000000000     0.00000000000000     0.00000000000000
   17      1.31365535419820    -1.31365535419820     0.00000000000000
   18      1.31365535419820     0.00000000000000    -1.31365535419820
   19     -0.00000000000000     0.31896987547903     0.31896987547903
   20     -0.00000000000000     0.00000000000000     0.00000000000000
   21     -0.31896987547903     0.31896987547903     0.00000000000000
   22      1.31365535419820     0.00000000000000     1.31365535419820
   23     -0.00000000000000     0.31896987547903    -0.31896987547903
   24     -0.00000000000000     0.00000000000000     0.00000000000000
   25      1.31365535419820     1.31365535419820     0.00000000000000
   26     -0.31896987547903     0.00000000000000     0.31896987547903
   27     -0.00000000000000    -0.31896987547903     0.31896987547903
   28     -0.00000000000000     0.00000000000000     0.00000000000000
   29     -0.31896987547903    -0.31896987547903     0.00000000000000
   30     -0.31896987547903     0.00000000000000    -0.31896987547903
   31     -0.00000000000000    -0.31896987547903    -0.31896987547903
 frms,max,avg= 6.8672804E-01 1.3136554E+00   0.000E+00  0.000E+00  0.000E+00 e/A
 length scales= 15.340000000000 15.340000000000 15.340000000000 bohr
              =  8.117578379771  8.117578379771  8.117578379771 angstroms
 Fermi (or HOMO) energy (hartree) =   0.39065   Average Vxc (hartree)=  -0.49570
 Eigenvalues (hartree) for nkpt=   1  k points:
 kpt#   1, nband=192, wtk=  1.00000, kpt=  0.0000  0.0000  0.0000 (reduced coord)
  -0.78407   -0.72613   -0.72613   -0.72058   -0.72058   -0.72058   -0.70836   -0.67947
  -0.67947   -0.67317   -0.67317   -0.67317   -0.67313   -0.67290   -0.67290   -0.67290
  -0.66986   -0.66986   -0.66986   -0.66252   -0.66252   -0.66252   -0.63138   -0.61894
  -0.61806   -0.61806   -0.61435   -0.61435   -0.61280   -0.61280   -0.61280   -0.33392
  -0.32895   -0.32895   -0.32895   -0.30077   -0.30077   -0.30077   -0.23773   -0.23661
  -0.23661   -0.23661   -0.23104   -0.23104   -0.23104   -0.23042   -0.23042   -0.23042
  -0.22869   -0.22869   -0.22850   -0.22850   -0.22850   -0.22787   -0.22787   -0.22787
  -0.22437   -0.22437   -0.22437   -0.20403   -0.20403   -0.20403   -0.15899   -0.15899
  -0.15869   -0.15869   -0.15869   -0.15566   -0.14972   -0.14972   -0.14972   -0.14819
  -0.14819   -0.14819   -0.14663   -0.13817   -0.13817   -0.13422   -0.13422   -0.13422
  -0.13048   -0.12298   -0.12298   -0.11522   -0.11522   -0.11522   -0.09752   -0.09752
  -0.09752   -0.07526   -0.07526   -0.07526   -0.03847   -0.03847   -0.03847   -0.03801
  -0.03801   -0.03801   -0.03323   -0.03323   -0.03323   -0.02030   -0.02030   -0.02030
  -0.00436   -0.00436   -0.00436   -0.00269   -0.00233   -0.00233   -0.00233   -0.00192
  -0.00192   -0.00192    0.00263    0.00263    0.00327    0.00327    0.00662    0.00662
   0.00662    0.05262    0.05262    0.05262    0.21684    0.23244    0.23244    0.24537
   0.24537    0.24537    0.31469    0.31855    0.31855    0.32861    0.32861    0.32861
   0.32956    0.36303    0.36303    0.36303    0.36627    0.37806    0.37806    0.37806
   0.38024    0.38024    0.38217    0.38217    0.38217    0.38449    0.38489    0.38489
   0.38489    0.39136    0.39136    0.39212    0.39212    0.39212    0.39404    0.39404
   0.39404    0.40313    0.42650    0.42650    0.46376    0.46376    0.46376    0.46520
   0.46520    0.46520    0.48258    0.48566    0.48566    0.48566    0.48846    0.48846
   0.49618    0.49618    0.49618    0.52392    0.52393    0.52394    0.52984    0.52984
   0.52985    0.53164    0.53164    0.53169    0.53601    0.53733    0.53973    0.54163
      occupation numbers for kpt#   1
   2.00000    2.00000    2.00000    2.00000    2.00000    2.00000    2.00000    2.00000
   2.00000    2.00000    2.00000    2.00000    2.00000    2.00000    2.00000    2.00000
   2.00000    2.00000    2.00000    2.00000    2.00000    2.00000    2.00000    2.00000
   2.00000    2.00000    2.00000    2.00000    2.00000    2.00000    2.00000    2.00000
   2.00000    2.00000    2.00000    2.00000    2.00000    2.00000    2.00000    2.00000
   2.00000    2.00000    2.00000    2.00000    2.00000    2.00000    2.00000    2.00000
   2.00000    2.00000    2.00000    2.00000    2.00000    2.00000    2.00000    2.00000
   2.00000    2.00000    2.00000    2.00000    2.00000    2.00000    2.00000    2.00000
   2.00000    2.00000    2.00000    2.00000    2.00000    2.00000    2.00000    2.00000
   2.00000    2.00000    2.00000    2.00000    2.00000    2.00000    2.00000    2.00000
   2.00000    2.00000    2.00000    2.00000    2.00000    2.00000    2.00000    2.00000
   2.00000    2.00000    2.00000    2.00000    2.00000    2.00000    2.00000    2.00000
   2.00000    2.00000    2.00000    2.00000    2.00000    2.00000    2.00000    2.00000
   2.00000    2.00000    2.00000    2.00000    2.00000    2.00000    2.00000    2.00000
   2.00000    2.00000    2.00000    2.00000    2.00000    2.00000    2.00000    2.00000
   2.00000    2.00000    2.00000    2.00000    2.00000    2.00000    2.00000    2.00000
   2.00000    2.00000    2.00000    2.00000    2.00000    2.00000    2.00000    2.00000
   2.00000    2.00000    2.00000    2.00000    1.99999    1.99632    1.99632    1.99632
   1.98905    1.98905    1.97161    1.97161    1.97161    1.91213    1.89375    1.89375
   1.89375    0.82418    0.82418    0.64775    0.64775    0.64775    0.30974    0.30974
   0.30974    0.00388    0.00000    0.00000    0.00000    0.00000    0.00000    0.00000
   0.00000    0.00000    0.00000    0.00000    0.00000    0.00000    0.00000    0.00000
   0.00000    0.00000    0.00000    0.00000    0.00000    0.00000    0.00000    0.00000
   0.00000    0.00000    0.00000    0.00000    0.00000    0.00000    0.00000    0.00000
 
--------------------------------------------------------------------------------
 Components of total free energy (in Hartree) :
 
    Kinetic energy  =  3.06298420549950E+02
    Hartree energy  =  3.63338989808463E+01
    XC energy       = -1.89096281128398E+02
    Ewald energy    = -9.05896420881061E+02
    PspCore energy  =  1.58170863145425E+02
    Loc. psp. energy= -1.22018810519608E+02
    Spherical terms = -8.41969258485784E+01
    >>>>> Internal E= -8.00405255701423E+02
 
    -kT*entropy     = -2.27465894564880E-02
    >>>>>>>>> Etotal= -8.00428002290880E+02
 
 "Double-counting" decomposition of free energy:
    Band energy     = -4.40506574890169E+01
    Ewald energy    =-9.05896420881061E+02
    PspCore energy  =  1.58170863145425E+02
    Dble-C XC-energy=  1.75602097665727E+01
    Spherical terms = -2.61883387699475E+01
    >>>>> Internal E= -8.00404344228028E+02
 
    -kT*entropy     = -2.27465894564880E-02
    >>>> Etotal (DC)= -8.00427090817484E+02
 
  >Total energy in eV           = -2.17807536226301E+04
  >Total DC energy in eV        = -2.17807288201776E+04
--------------------------------------------------------------------------------
 
 
 
 
 
 Cartesian components of stress tensor (hartree/bohr^3)
  sigma(1 1)= -4.33643574E-03  sigma(3 2)=  0.00000000E+00
  sigma(2 2)= -4.33643574E-03  sigma(3 1)=  0.00000000E+00
  sigma(3 3)= -4.33643574E-03  sigma(2 1)=  0.00000000E+00
 
-Cartesian components of stress tensor (GPa)         [Pressure=  1.2758E+02 GPa]
- sigma(1 1)= -1.27582323E+02  sigma(3 2)=  0.00000000E+00
- sigma(2 2)= -1.27582323E+02  sigma(3 1)=  0.00000000E+00
- sigma(3 3)= -1.27582323E+02  sigma(2 1)=  0.00000000E+00
 
== END DATASET(S) ==============================================================
================================================================================
  
 -outvars: echo values of variables after computation  --------
-          iomode           1
            acell      1.5340000000E+01  1.5340000000E+01  1.5340000000E+01 Bohr
              amu      1.37327000E+02
      chksymbreak           0
     densfor_pred           6
             ecut      8.00000000E+00 Hartree
           etotal     -8.0042709082E+02
            fcart     -2.5546531443E-02 -2.5546531443E-02  2.7979410905E-19
                      -2.5546531443E-02  5.5958821841E-20 -2.5546531443E-02
                      -8.9534114884E-19 -2.5546531443E-02 -2.5546531443E-02
                      -8.9534114889E-19  5.5958821806E-20  2.7979410903E-19
                       6.2029770040E-03  6.2029770040E-03  2.7979410906E-19
                      -2.5546531443E-02  5.5958821911E-20  2.5546531443E-02
                      -8.9534114889E-19 -2.5546531443E-02  2.5546531443E-02
                      -8.9534114889E-19  5.5958821806E-20  2.7979410903E-19
                      -2.5546531443E-02  2.5546531443E-02  2.7979410906E-19
                       6.2029770040E-03  5.5958821841E-20  6.2029770040E-03
                      -8.9534114889E-19  2.5546531443E-02 -2.5546531443E-02
                      -8.9534114889E-19  5.5958821806E-20  2.7979410903E-19
                       6.2029770040E-03 -6.2029770040E-03  2.7979410920E-19
                       6.2029770040E-03  5.5958821911E-20 -6.2029770040E-03
                      -8.9534114887E-19  2.5546531443E-02  2.5546531443E-02
                      -8.9534114889E-19  5.5958821806E-20  2.7979410903E-19
                       2.5546531443E-02 -2.5546531443E-02  2.7979410900E-19
                       2.5546531443E-02  5.5958821841E-20 -2.5546531443E-02
                      -8.9534114886E-19  6.2029770040E-03  6.2029770040E-03
                      -8.9534114889E-19  5.5958821806E-20  2.7979410903E-19
                      -6.2029770040E-03  6.2029770040E-03  2.7979410914E-19
                       2.5546531443E-02  5.5958821771E-20  2.5546531443E-02
                      -8.9534114875E-19  6.2029770040E-03 -6.2029770040E-03
                      -8.9534114889E-19  5.5958821806E-20  2.7979410903E-19
                       2.5546531443E-02  2.5546531443E-02  2.7979410900E-19
                      -6.2029770040E-03  5.5958821841E-20  6.2029770040E-03
                      -8.9534114882E-19 -6.2029770040E-03  6.2029770040E-03
                      -8.9534114889E-19  5.5958821806E-20  2.7979410903E-19
                      -6.2029770040E-03 -6.2029770040E-03  2.7979410906E-19
                      -6.2029770040E-03  5.5958821841E-20 -6.2029770040E-03
                      -8.9534114886E-19 -6.2029770040E-03 -6.2029770040E-03
-          fftalg         312
           istwfk        1
              ixc           7
           kptopt           0
P           mkmem           1
            natom          31
            nband         192
            ngfft          40      40      40
          ngfftdg          45      45      45
             nkpt           1
            nstep          40
             nsym          48
           ntypat           1
              occ      2.000000  2.000000  2.000000  2.000000  2.000000  2.000000
                       2.000000  2.000000  2.000000  2.000000  2.000000  2.000000
                       2.000000  2.000000  2.000000  2.000000  2.000000  2.000000
                       2.000000  2.000000  2.000000  2.000000  2.000000  2.000000
                       2.000000  2.000000  2.000000  2.000000  2.000000  2.000000
                       2.000000  2.000000  2.000000  2.000000  2.000000  2.000000
                       2.000000  2.000000  2.000000  2.000000  2.000000  2.000000
                       2.000000  2.000000  2.000000  2.000000  2.000000  2.000000
                       2.000000  2.000000  2.000000  2.000000  2.000000  2.000000
                       2.000000  2.000000  2.000000  2.000000  2.000000  2.000000
                       2.000000  2.000000  2.000000  2.000000  2.000000  2.000000
                       2.000000  2.000000  2.000000  2.000000  2.000000  2.000000
                       2.000000  2.000000  2.000000  2.000000  2.000000  2.000000
                       2.000000  2.000000  2.000000  2.000000  2.000000  2.000000
                       2.000000  2.000000  2.000000  2.000000  2.000000  2.000000
                       2.000000  2.000000  2.000000  2.000000  2.000000  2.000000
                       2.000000  2.000000  2.000000  2.000000  2.000000  2.000000
                       2.000000  2.000000  2.000000  2.000000  2.000000  2.000000
                       2.000000  2.000000  2.000000  2.000000  2.000000  2.000000
                       2.000000  2.000000  2.000000  2.000000  2.000000  2.000000
                       2.000000  2.000000  2.000000  2.000000  2.000000  2.000000
                       2.000000  2.000000  2.000000  2.000000  2.000000  2.000000
                       2.000000  2.000000  2.000000  2.000000  2.000000  1.999998
                       1.999998  1.999998  1.999990  1.996320  1.996320  1.996320
                       1.989054  1.989054  1.971614  1.971614  1.971614  1.912130
                       1.893746  1.893746  1.893746  0.824182  0.824182  0.647753
                       0.647753  0.647753  0.309744  0.309744  0.309744  0.003883
                       0.000000  0.000000  0.000000  0.000000  0.000000  0.000000
                       0.000000  0.000000  0.000000  0.000000  0.000000  0.000000
                       0.000000  0.000000  0.000000  0.000000  0.000000  0.000000
                       0.000000  0.000000  0.000000  0.000000  0.000000  0.000000
                       0.000000  0.000000  0.000000  0.000000  0.000000  0.000000
           occopt           3
        paral_kgb           1
        pawecutdg      1.00000000E+01 Hartree
           prtden           0
           prteig           0
            prtwf           0
          spgroup         221
           strten     -4.3364357374E-03 -4.3364357374E-03 -4.3364357374E-03
                       0.0000000000E+00  0.0000000000E+00  0.0000000000E+00
           symrel      1  0  0   0  1  0   0  0  1      -1  0  0   0 -1  0   0  0 -1
                      -1  0  0   0  1  0   0  0 -1       1  0  0   0 -1  0   0  0  1
                      -1  0  0   0 -1  0   0  0  1       1  0  0   0  1  0   0  0 -1
                       1  0  0   0 -1  0   0  0 -1      -1  0  0   0  1  0   0  0  1
                       0  1  0   1  0  0   0  0  1       0 -1  0  -1  0  0   0  0 -1
                       0 -1  0   1  0  0   0  0 -1       0  1  0  -1  0  0   0  0  1
                       0 -1  0  -1  0  0   0  0  1       0  1  0   1  0  0   0  0 -1
                       0  1  0  -1  0  0   0  0 -1       0 -1  0   1  0  0   0  0  1
                       0  0  1   1  0  0   0  1  0       0  0 -1  -1  0  0   0 -1  0
                       0  0 -1   1  0  0   0 -1  0       0  0  1  -1  0  0   0  1  0
                       0  0 -1  -1  0  0   0  1  0       0  0  1   1  0  0   0 -1  0
                       0  0  1  -1  0  0   0 -1  0       0  0 -1   1  0  0   0  1  0
                       1  0  0   0  0  1   0  1  0      -1  0  0   0  0 -1   0 -1  0
                      -1  0  0   0  0  1   0 -1  0       1  0  0   0  0 -1   0  1  0
                      -1  0  0   0  0 -1   0  1  0       1  0  0   0  0  1   0 -1  0
                       1  0  0   0  0 -1   0 -1  0      -1  0  0   0  0  1   0  1  0
                       0  1  0   0  0  1   1  0  0       0 -1  0   0  0 -1  -1  0  0
                       0 -1  0   0  0  1  -1  0  0       0  1  0   0  0 -1   1  0  0
                       0 -1  0   0  0 -1   1  0  0       0  1  0   0  0  1  -1  0  0
                       0  1  0   0  0 -1  -1  0  0       0 -1  0   0  0  1   1  0  0
                       0  0  1   0  1  0   1  0  0       0  0 -1   0 -1  0  -1  0  0
                       0  0 -1   0  1  0  -1  0  0       0  0  1   0 -1  0   1  0  0
                       0  0 -1   0 -1  0   1  0  0       0  0  1   0  1  0  -1  0  0
                       0  0  1   0 -1  0  -1  0  0       0  0 -1   0  1  0   1  0  0
           timopt          -3
           toldfe      1.00000000E-05 Hartree
           tsmear      2.00000000E-03 Hartree
            typat      1  1  1  1  1  1  1  1  1  1  1  1  1  1  1  1  1  1  1  1
                       1  1  1  1  1  1  1  1  1  1  1
           useylm           1
         wfoptalg         114
           xangst      2.0293945949E+00  2.0293945949E+00  0.0000000000E+00
                       2.0293945949E+00  0.0000000000E+00  2.0293945949E+00
                       0.0000000000E+00  2.0293945949E+00  2.0293945949E+00
                       0.0000000000E+00  0.0000000000E+00  4.0587891899E+00
                       2.0293945949E+00  2.0293945949E+00  4.0587891899E+00
                       2.0293945949E+00  0.0000000000E+00  6.0881837848E+00
                       0.0000000000E+00  2.0293945949E+00  6.0881837848E+00
                       0.0000000000E+00  4.0587891899E+00  0.0000000000E+00
                       2.0293945949E+00  6.0881837848E+00  0.0000000000E+00
                       2.0293945949E+00  4.0587891899E+00  2.0293945949E+00
                       0.0000000000E+00  6.0881837848E+00  2.0293945949E+00
                       0.0000000000E+00  4.0587891899E+00  4.0587891899E+00
                       2.0293945949E+00  6.0881837848E+00  4.0587891899E+00
                       2.0293945949E+00  4.0587891899E+00  6.0881837848E+00
                       0.0000000000E+00  6.0881837848E+00  6.0881837848E+00
                       4.0587891899E+00  0.0000000000E+00  0.0000000000E+00
                       6.0881837848E+00  2.0293945949E+00  0.0000000000E+00
                       6.0881837848E+00  0.0000000000E+00  2.0293945949E+00
                       4.0587891899E+00  2.0293945949E+00  2.0293945949E+00
                       4.0587891899E+00  0.0000000000E+00  4.0587891899E+00
                       6.0881837848E+00  2.0293945949E+00  4.0587891899E+00
                       6.0881837848E+00  0.0000000000E+00  6.0881837848E+00
                       4.0587891899E+00  2.0293945949E+00  6.0881837848E+00
                       4.0587891899E+00  4.0587891899E+00  0.0000000000E+00
                       6.0881837848E+00  6.0881837848E+00  0.0000000000E+00
                       6.0881837848E+00  4.0587891899E+00  2.0293945949E+00
                       4.0587891899E+00  6.0881837848E+00  2.0293945949E+00
                       4.0587891899E+00  4.0587891899E+00  4.0587891899E+00
                       6.0881837848E+00  6.0881837848E+00  4.0587891899E+00
                       6.0881837848E+00  4.0587891899E+00  6.0881837848E+00
                       4.0587891899E+00  6.0881837848E+00  6.0881837848E+00
            xcart      3.8350000000E+00  3.8350000000E+00  0.0000000000E+00
                       3.8350000000E+00  0.0000000000E+00  3.8350000000E+00
                       0.0000000000E+00  3.8350000000E+00  3.8350000000E+00
                       0.0000000000E+00  0.0000000000E+00  7.6700000000E+00
                       3.8350000000E+00  3.8350000000E+00  7.6700000000E+00
                       3.8350000000E+00  0.0000000000E+00  1.1505000000E+01
                       0.0000000000E+00  3.8350000000E+00  1.1505000000E+01
                       0.0000000000E+00  7.6700000000E+00  0.0000000000E+00
                       3.8350000000E+00  1.1505000000E+01  0.0000000000E+00
                       3.8350000000E+00  7.6700000000E+00  3.8350000000E+00
                       0.0000000000E+00  1.1505000000E+01  3.8350000000E+00
                       0.0000000000E+00  7.6700000000E+00  7.6700000000E+00
                       3.8350000000E+00  1.1505000000E+01  7.6700000000E+00
                       3.8350000000E+00  7.6700000000E+00  1.1505000000E+01
                       0.0000000000E+00  1.1505000000E+01  1.1505000000E+01
                       7.6700000000E+00  0.0000000000E+00  0.0000000000E+00
                       1.1505000000E+01  3.8350000000E+00  0.0000000000E+00
                       1.1505000000E+01  0.0000000000E+00  3.8350000000E+00
                       7.6700000000E+00  3.8350000000E+00  3.8350000000E+00
                       7.6700000000E+00  0.0000000000E+00  7.6700000000E+00
                       1.1505000000E+01  3.8350000000E+00  7.6700000000E+00
                       1.1505000000E+01  0.0000000000E+00  1.1505000000E+01
                       7.6700000000E+00  3.8350000000E+00  1.1505000000E+01
                       7.6700000000E+00  7.6700000000E+00  0.0000000000E+00
                       1.1505000000E+01  1.1505000000E+01  0.0000000000E+00
                       1.1505000000E+01  7.6700000000E+00  3.8350000000E+00
                       7.6700000000E+00  1.1505000000E+01  3.8350000000E+00
                       7.6700000000E+00  7.6700000000E+00  7.6700000000E+00
                       1.1505000000E+01  1.1505000000E+01  7.6700000000E+00
                       1.1505000000E+01  7.6700000000E+00  1.1505000000E+01
                       7.6700000000E+00  1.1505000000E+01  1.1505000000E+01
             xred      2.5000000000E-01  2.5000000000E-01  0.0000000000E+00
                       2.5000000000E-01  0.0000000000E+00  2.5000000000E-01
                       0.0000000000E+00  2.5000000000E-01  2.5000000000E-01
                       0.0000000000E+00  0.0000000000E+00  5.0000000000E-01
                       2.5000000000E-01  2.5000000000E-01  5.0000000000E-01
                       2.5000000000E-01  0.0000000000E+00  7.5000000000E-01
                       0.0000000000E+00  2.5000000000E-01  7.5000000000E-01
                       0.0000000000E+00  5.0000000000E-01  0.0000000000E+00
                       2.5000000000E-01  7.5000000000E-01  0.0000000000E+00
                       2.5000000000E-01  5.0000000000E-01  2.5000000000E-01
                       0.0000000000E+00  7.5000000000E-01  2.5000000000E-01
                       0.0000000000E+00  5.0000000000E-01  5.0000000000E-01
                       2.5000000000E-01  7.5000000000E-01  5.0000000000E-01
                       2.5000000000E-01  5.0000000000E-01  7.5000000000E-01
                       0.0000000000E+00  7.5000000000E-01  7.5000000000E-01
                       5.0000000000E-01  0.0000000000E+00  0.0000000000E+00
                       7.5000000000E-01  2.5000000000E-01  0.0000000000E+00
                       7.5000000000E-01  0.0000000000E+00  2.5000000000E-01
                       5.0000000000E-01  2.5000000000E-01  2.5000000000E-01
                       5.0000000000E-01  0.0000000000E+00  5.0000000000E-01
                       7.5000000000E-01  2.5000000000E-01  5.0000000000E-01
                       7.5000000000E-01  0.0000000000E+00  7.5000000000E-01
                       5.0000000000E-01  2.5000000000E-01  7.5000000000E-01
                       5.0000000000E-01  5.0000000000E-01  0.0000000000E+00
                       7.5000000000E-01  7.5000000000E-01  0.0000000000E+00
                       7.5000000000E-01  5.0000000000E-01  2.5000000000E-01
                       5.0000000000E-01  7.5000000000E-01  2.5000000000E-01
                       5.0000000000E-01  5.0000000000E-01  5.0000000000E-01
                       7.5000000000E-01  7.5000000000E-01  5.0000000000E-01
                       7.5000000000E-01  5.0000000000E-01  7.5000000000E-01
                       5.0000000000E-01  7.5000000000E-01  7.5000000000E-01
            znucl       56.00000
 
================================================================================
 
 Test the timer : 
  a combined call timab(*,1,tsec) + timab(*,2,tsec) is 
- CPU time =    2.4163E-05 sec,    Wall time =    6.5335E-06 sec

- Total cpu        time (s,m,h):       1139.4       18.99      0.316
- Total wall clock time (s,m,h):        330.2        5.50      0.092
-
- For major independent code sections, cpu and wall times (sec),
-  as well as % of the time and number of calls for node 0-
-<BEGIN_TIMER mpi_nprocs = 1, omp_nthreads = 4, mpi_rank = 0>
- cpu_time =         1139.4, wall_time =          330.2
-
- routine                        cpu     %       wall     %      number of calls  Gflops    Speedup Efficacity
-                                                                  (-1=no count)
- vtowfk(ssdiag)               999.702  87.7    290.369  87.9             -1      -1.00        3.44       0.86
- lobpcgwf2                    999.622  87.7    290.342  87.9             12      -1.00        3.44       0.86
- nonlop(apply)                664.030  58.3    188.163  57.0          11520      -1.00        3.53       0.88
- fourwf%(pot)                  91.432   8.0     29.339   8.9          11520      -1.00        3.12       0.78
- vtowfk(contrib)               43.587   3.8     11.963   3.6             10      -1.00        3.64       0.91
- pawdenpot                      8.711   0.8      2.457   0.7             10      -1.00        3.55       0.89
- pawmkrho                       4.986   0.4      1.356   0.4             10      -1.00        3.68       0.92
- pawdij/symdij                  4.527   0.4      1.294   0.4             10      -1.00        3.50       0.87
- pawmkrho:symrhoij              4.499   0.4      1.224   0.4             10      -1.00        3.68       0.92
- mkrho/=                        4.032   0.4      1.115   0.3             20      -1.00        3.62       0.90
- getghc-other                   3.320   0.3      0.807   0.2             -1      -1.00        4.12       1.03
- fourdp                         1.984   0.2      0.783   0.2             96      -1.00        2.53       0.63
- pspini                         1.494   0.1      0.978   0.3              1      -1.00        1.53       0.38
- pawinit                        1.397   0.1      0.470   0.1              2      -1.00        2.97       0.74
- ewald                          1.120   0.1      0.558   0.2              1      -1.00        2.01       0.50
- vtorho:pawmkrhoij              0.984   0.1      0.259   0.1             10      -1.00        3.80       0.95
- xc:pot/=fourdp                 0.754   0.1      0.223   0.1             11      -1.00        3.38       0.84
- stress                         0.751   0.1      0.334   0.1              1      -1.00        2.25       0.56
- ewald2 (+vdw_dftd)             0.583   0.1      0.288   0.1              1      -1.00        2.03       0.51
- nhatgrid                       0.424   0.0      0.127   0.0              2      -1.00        3.33       0.83
- forces                         0.271   0.0      0.083   0.0              1      -1.00        3.26       0.81
- symrhg(no FFT)                 0.232   0.0      0.056   0.0             10      -1.00        4.10       1.03
- newkpt(excl. rwwf   )          0.191   0.0      0.050   0.0             -1      -1.00        3.84       0.96
- timing timab                   0.122   0.0      0.033   0.0              5      -1.00        3.70       0.92
- prep_bandfft_tabs              0.114   0.0      0.031   0.0              2      -1.00        3.73       0.93
- invars2                        0.074   0.0      0.074   0.0              1      -1.00        0.99       0.25
- abinit(2)                      0.072   0.0      0.125   0.0              1      -1.00        0.58       0.14
- setsym                         0.047   0.0      0.013   0.0              1      -1.00        3.72       0.93
- scfcv-scprqt                   0.025   0.0      0.004   0.0             10      -1.00        7.23       1.81
- others (106)                   0.000   0.0      0.000   0.0             -1      -1.00        0.96       0.24
-<END_TIMER>
-
- subtotal                    2839.087 249.2    822.914 249.2                                  3.45       0.86

- For major independent code sections, cpu and wall times (sec),
- as well as % of the total time and number of calls 

-<BEGIN_TIMER mpi_nprocs = 1, omp_nthreads = 4, mpi_rank = world>
- cpu_time =        1139.4, wall_time =         330.2
-
- routine                         cpu     %       wall     %      number of calls Gflops    Speedup Efficacity
-                                                                  (-1=no count)
- vtowfk(ssdiag)               999.702  87.7    290.369  87.9             -1      -1.00        3.44       0.86
- lobpcgwf2                    999.622  87.7    290.342  87.9             12      -1.00        3.44       0.86
- nonlop(apply)                664.030  58.3    188.163  57.0          11520      -1.00        3.53       0.88
- fourwf%(pot)                  91.432   8.0     29.339   8.9          11520      -1.00        3.12       0.78
- vtowfk(contrib)               43.587   3.8     11.963   3.6             10      -1.00        3.64       0.91
- pawdenpot                      8.711   0.8      2.457   0.7             10      -1.00        3.55       0.89
- pawmkrho                       4.986   0.4      1.356   0.4             10      -1.00        3.68       0.92
- pawdij/symdij                  4.527   0.4      1.294   0.4             10      -1.00        3.50       0.87
- pawmkrho:symrhoij              4.499   0.4      1.224   0.4             10      -1.00        3.68       0.92
- mkrho/=                        4.032   0.4      1.115   0.3             20      -1.00        3.62       0.90
- getghc-other                   3.320   0.3      0.807   0.2             -1      -1.00        4.12       1.03
- fourdp                         1.984   0.2      0.783   0.2             96      -1.00        2.53       0.63
- pspini                         1.494   0.1      0.978   0.3              1      -1.00        1.53       0.38
- pawinit                        1.397   0.1      0.470   0.1              2      -1.00        2.97       0.74
- ewald                          1.120   0.1      0.558   0.2              1      -1.00        2.01       0.50
- vtorho:pawmkrhoij              0.984   0.1      0.259   0.1             10      -1.00        3.80       0.95
- xc:pot/=fourdp                 0.754   0.1      0.223   0.1             11      -1.00        3.38       0.84
- stress                         0.751   0.1      0.334   0.1              1      -1.00        2.25       0.56
- ewald2 (+vdw_dftd)             0.583   0.1      0.288   0.1              1      -1.00        2.03       0.51
- nhatgrid                       0.424   0.0      0.127   0.0              2      -1.00        3.33       0.83
- forces                         0.271   0.0      0.083   0.0              1      -1.00        3.26       0.81
- symrhg(no FFT)                 0.232   0.0      0.056   0.0             10      -1.00        4.10       1.03
- newkpt(excl. rwwf   )          0.191   0.0      0.050   0.0             -1      -1.00        3.84       0.96
- timing timab                   0.122   0.0      0.033   0.0              5      -1.00        3.70       0.92
- prep_bandfft_tabs              0.114   0.0      0.031   0.0              2      -1.00        3.73       0.93
- invars2                        0.074   0.0      0.074   0.0              1      -1.00        0.99       0.25
- abinit(2)                      0.072   0.0      0.125   0.0              1      -1.00        0.58       0.14
- setsym                         0.047   0.0      0.013   0.0              1      -1.00        3.72       0.93
- scfcv-scprqt                   0.025   0.0      0.004   0.0             10      -1.00        7.23       1.81
- others (106)                   0.000   0.0      0.000   0.0             -1      -1.00        0.96       0.24
-<END_TIMER>

- subtotal                    2839.087 249.2    822.914 249.2                                  3.45       0.86

 Partitioning of abinit
- abinit                      1139.376 100.0    330.209 100.0              1                   3.45       0.86
 
- abinit(2)                      0.072   0.0      0.125   0.0              1                   0.58       0.14
- indefo+macroin+invars2m        0.074   0.0      0.075   0.0              1                   0.99       0.25
- abinit(4)                      0.171   0.0      0.242   0.1              1                   0.71       0.18
- abinit(5)                      0.417   0.0      0.144   0.0              1                   2.89       0.72
- driver                      1138.639  99.9    329.747  99.9              1                   3.45       0.86

- subtotal                    1139.376 100.0    330.209 100.0                                  3.45       0.86

 Partitioning of driver
- driver                      1138.639  99.9    329.747  99.9              1                   3.45       0.86
 
- gstateimg                   1138.628  99.9    329.731  99.9              1                   3.45       0.86

- subtotal                    1138.639  99.9    329.747  99.9                                  3.45       0.86

 Partitioning of gstateimg+gstate
- gstateimg                   1138.628  99.9    329.731  99.9              1                   3.45       0.86
 
- gstate->kpgsph                 0.307   0.0      0.086   0.0              2                   3.56       0.89
- gstate(pspini)                 1.494   0.1      0.978   0.3              1                   1.53       0.38
- gstate  (2)                    1.347   0.1      0.581   0.2              1                   2.32       0.58
- gstate(...scfcv)            1135.460  99.7    327.983  99.3              1                   3.46       0.87
- gstate  (3)                    0.020   0.0      0.093   0.0              1                   0.22       0.05

- subtotal                    1138.628  99.9    329.731  99.9                                  3.45       0.86

 Partitioning of scfcv_core
- scfcv_core                  1135.460  99.7    327.983  99.3              1                   3.46       0.87
 
- scfcv_core(iniloop, setv       1.293   0.1      0.636   0.2             10                   2.03       0.51
- scfcv_core(loop, PAW)         13.288   1.2      3.765   1.1             10                   3.53       0.88
- scfcv_core(vtorho(f))       1056.358  92.7    305.992  92.7             10                   3.45       0.86
- scfcv_core(mix den - new       0.947   0.1      0.303   0.1              9                   3.13       0.78
- scfcv_core(rhotov)             1.255   0.1      0.364   0.1              9                   3.44       0.86
- scfcv_core(afterscfloop)      62.134   5.5     16.812   5.1              1                   3.70       0.92

- subtotal                    1135.460  99.7    327.983  99.3                                  3.46       0.87

 Partitioning of rhotov
- rhotov                         1.003   0.1      0.294   0.1              9                   3.42       0.85
 
- rhotov(rhotoxc)                0.656   0.1      0.190   0.1              9                   3.45       0.86

- subtotal                       1.003   0.1      0.294   0.1                                  3.42       0.85

 Partitioning of vtorho
- vtorho                      1056.358  92.7    305.992  92.7             10                   3.45       0.86
 
- vtorho(bef. kpt  loop)         0.562   0.0      0.241   0.1             10                   2.33       0.58
- vtowfk                      1043.289  91.6    302.332  91.6             10                   3.45       0.86
- vtorho(newocc)                 1.839   0.2      0.521   0.2             10                   3.53       0.88
- vtorho(mkrho 1)                4.401   0.4      1.204   0.4             10                   3.65       0.91
- vtorho(mkrho 2)                6.040   0.5      1.632   0.5             10                   3.70       0.93

- subtotal                    1056.358  92.7    305.992  92.7                                  3.45       0.86

 Partitioning of vtowfk
- vtowfk                      1043.289  91.6    302.332  91.6             10                   3.45       0.86
 
- vtowfk(2)                    999.702  87.7    290.369  87.9             -1                   3.44       0.86
- prep_nonlop%vtowfk            41.454   3.6     11.251   3.4           1920                   3.68       0.92
- vtowfk(3)                      2.133   0.2      0.712   0.2             -1                   3.00       0.75

- subtotal                    1043.289  91.6    302.332  91.6                                  3.45       0.86

 Partitioning of getghc
- getghc                       758.781  66.6    218.308  66.1          11520                   3.48       0.87
 
- fourwf%getghc                 91.432   8.0     29.339   8.9          11520                   3.12       0.78
- nonlop%getghc                664.030  58.3    188.163  57.0          11520                   3.53       0.88
- getghc-other                   3.320   0.3      0.807   0.2             -1                   4.12       1.03

- subtotal                     758.781  66.6    218.308  66.1                                  3.48       0.87

 Partitioning of fourwf (upwards partitioning)
- fourwf                        94.834   8.3     30.285   9.2          13158                   3.13       0.78
 
- fourwf%getghc                 91.432   8.0     29.339   8.9          11520                   3.12       0.78
- fourwf%prep_four               3.402   0.3      0.946   0.3           1638                   3.60       0.90

- subtotal                      94.834   8.3     30.285   9.2                                  3.13       0.78

 Partitioning of prep_getghc
- prep_getghc                  841.766  73.9    238.471  72.2          11520                   3.53       0.88
 
- prep_getghc(before if)         1.824   0.2      0.554   0.2          11520                   3.29       0.82
- prep_getghc(alltoall)         40.051   3.5     16.299   4.9          23040                   2.46       0.61
- prep_getghc(getghc - 1 )     799.666  70.2    221.533  67.1          11520                   3.61       0.90
- (other)                        0.226   0.0      0.086   0.0             -1                   2.62       0.65

- subtotal                     841.766  73.9    238.471  72.2                                  3.53       0.88

 Partitioning of prep_fourwf
- prep_fourwf                    3.834   0.3      1.056   0.3           1920                   3.63       0.91
 
- fourwf%prep_four               3.402   0.3      0.946   0.3           1638                   3.60       0.90
- alltoall%prep_fo               0.333   0.0      0.081   0.0           1920                   4.14       1.03

- subtotal                       3.735   0.3      1.027   0.3                                  3.64       0.91

 Partitioning of prep_nonlop
- prep_nonlop                  101.281   8.9     27.255   8.3           2084                   3.72       0.93
 
- nonlop%prep_nonl%vtowfk       40.587   3.6     10.984   3.3           1920                   3.69       0.92
- nonlop%prep_nonl%forstrn      59.819   5.3     16.001   4.8            164                   3.74       0.93
- prep_nonlop(alltoall)          0.622   0.1      0.222   0.1           2084                   2.80       0.70

- subtotal                     101.281   8.9     27.255   8.3                                  3.72       0.93

 Partitioning of mkrho (upwards partitioning)
- mkrho                          4.401   0.4      1.204   0.4             10                   3.65       0.91
 
- mkrho%vtorho                   4.401   0.4      1.204   0.4             10                   3.65       0.91

- subtotal                       4.401   0.4      1.204   0.4                                  3.65       0.91

 Partitioning of inwffil
- inwffil                        0.192   0.0      0.050   0.0              1                   3.84       0.96
 

- subtotal                       0.192   0.0      0.050   0.0                                  3.85       0.96

 Partitioning of newkpt
- newkpt                         0.191   0.0      0.050   0.0              1                   3.83       0.96
 

- subtotal                       0.191   0.0      0.050   0.0                                  3.84       0.96

 Partitioning of newrho
- newrho                         0.944   0.1      0.303   0.1              9                   3.12       0.78
 
- fourdp%newrho                  0.256   0.0      0.078   0.0             18                   3.27       0.82

- subtotal                       0.256   0.0      0.078   0.0                                  3.27       0.82

 Partitioning of  fourdp (upwards partitioning)
- fourdp                         1.984   0.2      0.783   0.2             96                   2.53       0.63
 
- fourdp%(other)                 1.728   0.2      0.704   0.2             78                   2.45       0.61
- fourdp%newrho                  0.256   0.0      0.078   0.0             18                   3.27       0.82

- subtotal                       1.984   0.2      0.783   0.2                                  2.53       0.63

 Partitioning of afterscfloop
- afterscfloop                  62.086   5.4     16.797   5.1              1                   3.70       0.92
 
- afterscfloop(forstr)          62.085   5.4     16.796   5.1              1                   3.70       0.92

- subtotal                      62.086   5.4     16.797   5.1                                  3.70       0.92

 Partitioning of forstr
- forstr                        61.626   5.4     16.673   5.0              1                   3.70       0.92
 
- forstr(forstrnps)             60.373   5.3     16.185   4.9              1                   3.73       0.93
- forstr(forces)                 0.331   0.0      0.100   0.0              1                   3.32       0.83
- forstr(stress)                 0.751   0.1      0.334   0.1              1                   2.25       0.56

- subtotal                      61.626   5.4     16.673   5.0                                  3.70       0.92

 Partitioning of forstrnps
- forstrnps                     60.373   5.3     16.185   4.9              1                   3.73       0.93
 
- forstrnps(nonlop+prep_ba      59.898   5.3     16.024   4.9            164                   3.74       0.93
- forstrnps(kinetic contr)       0.319   0.0      0.116   0.0            164                   2.74       0.69

- subtotal                      60.373   5.3     16.185   4.9                                  3.73       0.93

 Partitioning of outscfcv
- outscfcv                       0.015   0.0      0.047   0.0              1                   0.31       0.08
 

- subtotal                       0.005   0.0      0.005   0.0                                  1.00       0.25

 Partitioning of lobpcgwf2 core engine
- lobpcgwf2                    999.622  87.7    290.342  87.9             12                   3.44       0.86
 
- lobpcg_run                   999.594  87.7    290.337  87.9             12                   3.44       0.86
- lobpcg_orthoWrtPrev           94.679   8.3     28.805   8.7          11460                   3.29       0.82
- lobpcg_Bortho                 19.044   1.7      6.424   1.9          11532                   2.96       0.74
- lobpcg_RayleighRitz           32.468   2.8     12.312   3.7          11532                   2.64       0.66
- lobpcg_maxResidu               4.054   0.4      1.607   0.5          20736                   2.52       0.63
- lobpcg_run@getAX_BX          842.382  73.9    238.689  72.3          11520                   3.53       0.88
- lobpcg_pcond                   1.932   0.2      0.729   0.2           9216                   2.65       0.66
- lobpcg_RayleighRitz@hegv       3.756   0.3      1.393   0.4          11532                   2.70       0.67

- subtotal                    1997.935 175.4    580.298 175.7                                  3.44       0.86

 Partitioning of low-level xgBlock type
- xgBlock_potrf                  0.608   0.1      0.236   0.1          11532                   2.58       0.65
 
- xgBlock_trsm                  10.578   0.9      3.650   1.1          34596                   2.90       0.72
- xgBlock_gemm                 113.824  10.0     36.095  10.9         149700                   3.15       0.79
- xgBlock_heevd                  0.533   0.0      0.332   0.1           2316                   1.60       0.40
- xgBlock_hegvd                  2.914   0.3      0.954   0.3           9216                   3.05       0.76
- xgBlock_copy                   4.405   0.4      1.580   0.5          73764                   2.79       0.70

- subtotal                     132.443  11.6     42.661  12.9                                  3.10       0.78
-
-Synchronisation (=leave_test) and MPI calls 
- communic.MPI                   0.001   0.0      0.000   0.0             64                   1.71       0.43
-
- forstrnps:synchr               0.000   0.0      0.000   0.0              2                   0.00       0.00
- mkrho :MPIrhor                 0.000   0.0      0.000   0.0             10                   0.00       0.00
- subtotal                       0.000   0.0      0.000   0.0                                  0.00       0.00

 Additional information
- timana(1)                      0.011   0.0      0.006   0.0              1                   1.96       0.49
- total timab                   11.887   1.0      3.214   1.0         491951                   3.70       0.92
- fourwf                        94.834   8.3     30.285   9.2          13158                   3.13       0.78
- newocc                         1.839   0.2      0.521   0.2             10                   3.53       0.88
- nonlop(total)                764.436  67.1    215.148  65.2          13604                   3.55       0.89

 Additional information about PAW segments
- forces:pawatm2ff               0.167   0.0      0.054   0.0              1                   3.09       0.77
- stress:pawatm2ff               0.111   0.0      0.029   0.0              1                   3.83       0.96
- setvtr:pawatm2ff               0.042   0.0      0.022   0.0              1                   1.88       0.47
- pawinit                        1.397   0.1      0.470   0.1              2                   2.97       0.74
- vtowfk:rhoij                  41.500   3.6     11.265   3.4           1920                   3.68       0.92
- vtorho:pawmkrhoij              0.984   0.1      0.259   0.1             10                   3.80       0.95
- pawmkrho                       4.986   0.4      1.356   0.4             10                   3.68       0.92
- scfcv_core:mknhat              0.253   0.0      0.072   0.0             10                   3.53       0.88
- nhatgrid                       0.424   0.0      0.127   0.0              2                   3.33       0.83
- pawdenpot                      8.711   0.8      2.457   0.7             10                   3.55       0.89
- pawdij/symdij                  4.527   0.4      1.294   0.4             10                   3.50       0.87


 Detailed analysis of some time consuming routines 
                                  tcpu    ncalls  tcpu/ncalls    ndata tcpu/ncalls/ndata
                                 (sec)                (msec)              (microsec)
- fourwf%(pot)                  91.432     11520       7.937    128000       0.062
- fourwf%(den)                   0.000         0
- fourdp                         1.984        96      20.665     64000       0.323
- nonlop(apply)                664.030     11520      57.641    120497       0.478
- nonlop(forces)                 0.000         0
- nonlop(forstr)                 0.000         0
- projbd                         0.000         0
- xc:pot/=fourdp                 0.754        11      68.522     64000       1.071

================================================================================

 Suggested references for the acknowledgment of ABINIT usage.

 The users of ABINIT have little formal obligations with respect to the ABINIT group
 (those specified in the GNU General Public License, http://www.gnu.org/copyleft/gpl.txt).
 However, it is common practice in the scientific literature,
 to acknowledge the efforts of people that have made the research possible.
 In this spirit, please find below suggested citations of work written by ABINIT developers,
 corresponding to implementations inside of ABINIT that you have used in the present run.
 Note also that it will be of great value to readers of publications presenting these results,
 to read papers enabling them to understand the theoretical formalism and details
 of the ABINIT implementation.
 For information on why they are suggested, see also https://docs.abinit.org/theory/acknowledgments.
-
- [1] Implementation of the Projector Augmented-Wave Method in the ABINIT code.
- M. Torrent, F. Jollet, F. Bottin, G. Zerah, and X. Gonze Comput. Mat. Science 42, 337, (2008).
- Comment : PAW calculations. Strong suggestion to cite this paper.
- DOI and bibtex : see https://docs.abinit.org/theory/bibliography/#torrent2008
-
- [2] Recent developments in the ABINIT software package.
- Computer Phys. Comm. 205, 106 (2016).
- X.Gonze, F.Jollet, F.Abreu Araujo, D.Adams, B.Amadon, T.Applencourt,
- C.Audouze, J.-M.Beuken, J.Bieder, A.Bokhanchuk, E.Bousquet, F.Bruneval
- D.Caliste, M.Cote, F.Dahm, F.Da Pieve, M.Delaveau, M.Di Gennaro,
- B.Dorado, C.Espejo, G.Geneste, L.Genovese, A.Gerossier, M.Giantomassi,
- Y.Gillet, D.R.Hamann, L.He, G.Jomard, J.Laflamme Janssen, S.Le Roux,
- A.Levitt, A.Lherbier, F.Liu, I.Lukacevic, A.Martin, C.Martins,
- M.J.T.Oliveira, S.Ponce, Y.Pouillon, T.Rangel, G.-M.Rignanese,
- A.H.Romero, B.Rousseau, O.Rubel, A.A.Shukri, M.Stankovski, M.Torrent,
- M.J.Van Setten, B.Van Troeye, M.J.Verstraete, D.Waroquier, J.Wiktor,
- B.Xu, A.Zhou, J.W.Zwanziger.
- Comment : the fourth generic paper describing the ABINIT project.
- Note that a version of this paper, that is not formatted for Computer Phys. Comm. 
- is available at https://www.abinit.org/about/ABINIT16.pdf .
- The licence allows the authors to put it on the Web.
- DOI and bibtex : see https://docs.abinit.org/theory/bibliography/#gonze2016
-
- [3] ABINIT : First-principles approach of materials and nanosystem properties.
- Computer Phys. Comm. 180, 2582-2615 (2009).
- X. Gonze, B. Amadon, P.-M. Anglade, J.-M. Beuken, F. Bottin, P. Boulanger, F. Bruneval,
- D. Caliste, R. Caracas, M. Cote, T. Deutsch, L. Genovese, Ph. Ghosez, M. Giantomassi
- S. Goedecker, D.R. Hamann, P. Hermet, F. Jollet, G. Jomard, S. Leroux, M. Mancini, S. Mazevet,
- M.J.T. Oliveira, G. Onida, Y. Pouillon, T. Rangel, G.-M. Rignanese, D. Sangalli, R. Shaltaf,
- M. Torrent, M.J. Verstraete, G. Zerah, J.W. Zwanziger
- Comment : the third generic paper describing the ABINIT project.
- Note that a version of this paper, that is not formatted for Computer Phys. Comm. 
- is available at https://www.abinit.org/about/ABINIT_CPC_v10.pdf .
- The licence allows the authors to put it on the Web.
- DOI and bibtex : see https://docs.abinit.org/theory/bibliography/#gonze2009
-
- [4] A brief introduction to the ABINIT software package.
- Z. Kristallogr. 220, 558-562 (2005).
- X. Gonze, G.-M. Rignanese, M. Verstraete, J.-M. Beuken, Y. Pouillon, R. Caracas, F. Jollet,
- M. Torrent, G. Zerah, M. Mikami, Ph. Ghosez, M. Veithen, J.-Y. Raty, V. Olevano, F. Bruneval,
- L. Reining, R. Godby, G. Onida, D.R. Hamann, and D.C. Allan.
- Comment : the second generic paper describing the ABINIT project. Note that this paper
- should be cited especially if you are using the GW part of ABINIT, as several authors
- of this part are not in the list of authors of the first or third paper.
- The .pdf of the latter paper is available at https://www.abinit.org/about/zfk_0505-06_558-562.pdf.
- Note that it should not redistributed (Copyright by Oldenburg Wissenshaftverlag,
- the licence allows the authors to put it on the Web).
- DOI and bibtex : see https://docs.abinit.org/theory/bibliography/#gonze2005
-
- And optionally:
-
- [5] First-principles computation of material properties : the ABINIT software project. 
- X. Gonze, J.-M. Beuken, R. Caracas, F. Detraux, M. Fuchs, G.-M. Rignanese, L. Sindic,
- M. Verstraete, G. Zerah, F. Jollet, M. Torrent, A. Roy, M. Mikami, Ph. Ghosez, J.-Y. Raty, D.C. Allan.
- Computational Materials Science 25, 478-492 (2002). http://dx.doi.org/10.1016/S0927-0256(02)00325-7
- Comment : the original paper describing the ABINIT project.
- DOI and bibtex : see https://docs.abinit.org/theory/bibliography/#gonze2002
-
- Proc.   0 individual time (sec): cpu=       1139.4  wall=        330.2
 
================================================================================
 
 Calculation completed.
.Delivered   0 WARNINGs and   4 COMMENTs to log file.
+Overall time at end (sec) : cpu=       1139.4  wall=        330.2
