
.Version 8.11.8 of ABINIT 
.(MPI version, prepared for a x86_64_linux_intel19.0 computer) 

.Copyright (C) 1998-2019 ABINIT group . 
 ABINIT comes with ABSOLUTELY NO WARRANTY.
 It is free software, and you are welcome to redistribute it
 under certain conditions (GNU General Public License,
 see ~abinit/COPYING or http://www.gnu.org/copyleft/gpl.txt).

 ABINIT is a project of the Universite Catholique de Louvain,
 Corning Inc. and other collaborators, see ~abinit/doc/developers/contributors.txt .
 Please read https://docs.abinit.org/theory/acknowledgments for suggested
 acknowledgments of the ABINIT effort.
 For more information, see https://www.abinit.org .

.Starting date : Mon 17 Jun 2019.
- ( at 11h50 )
  
- input  file    -> t03.in
- output file    -> t03_x.out
- root for input  files -> t03_xi
- root for output files -> t03_xo
 
- inpspheads : Reading pseudopotential header in XML form from ../../../Psps_for_tests/ba.hpc.paw.xml
 
 Symmetries : space group Pm -3 m (#221); Bravais cP (primitive cubic)
================================================================================
 Values of the parameters that define the memory need of the present run
     intxc =       0    ionmov =       0      iscf =      17    lmnmax =      18
     lnmax =       6     mgfft =      40  mpssoang =       3    mqgrid =    3001
     natom =      31  nloc_mem =       2    nspden =       1   nspinor =       1
    nsppol =       1      nsym =      48    n1xccc =       1    ntypat =       1
    occopt =       3   xclevel =       1
-    mband =         192        mffmem =           1         mkmem =           1
       mpw =        3887          nfft =       64000          nkpt =           1
 PAW method is used; the additional fine FFT grid is defined by:
   mgfftf=        45    nfftf =     91125
================================================================================
P This job should need less than                      83.897 Mbytes of memory.
  Rough estimation (10% accuracy) of disk space for files :
_ WF disk file :     11.390 Mbytes ; DEN or POT disk file :      0.697 Mbytes.
================================================================================
 
--------------------------------------------------------------------------------
------------- Echo of variables that govern the present computation ------------
--------------------------------------------------------------------------------
-
- outvars: echo of selected default values                                      
-   iomode0 =  0 , fftalg0 =312 , wfoptalg0 = 10
-
- outvars: echo of global parameters not present in the input file              
-  max_nthreads =   12
-
 -outvars: echo values of preprocessed input variables --------
-          iomode           1
            acell      1.5340000000E+01  1.5340000000E+01  1.5340000000E+01 Bohr
              amu      1.37327000E+02
           bandpp         192
      chksymbreak           0
     densfor_pred           6
             ecut      8.00000000E+00 Hartree
-          fftalg         312
           istwfk        1
              ixc           7
           kptopt           0
P           mkmem           1
            natom          31
            nband         192
            ngfft          40      40      40
          ngfftdg          45      45      45
             nkpt           1
            nline           9
            nstep          40
             nsym          48
           ntypat           1
              occ      2.000000  2.000000  2.000000  2.000000  2.000000  2.000000
                       2.000000  2.000000  2.000000  2.000000  2.000000  2.000000
                       2.000000  2.000000  2.000000  2.000000  2.000000  2.000000
                       2.000000  2.000000  2.000000  2.000000  2.000000  2.000000
                       2.000000  2.000000  2.000000  2.000000  2.000000  2.000000
                       2.000000  2.000000  2.000000  2.000000  2.000000  2.000000
                       2.000000  2.000000  2.000000  2.000000  2.000000  2.000000
                       2.000000  2.000000  2.000000  2.000000  2.000000  2.000000
                       2.000000  2.000000  2.000000  2.000000  2.000000  2.000000
                       2.000000  2.000000  2.000000  2.000000  2.000000  2.000000
                       2.000000  2.000000  2.000000  2.000000  2.000000  2.000000
                       2.000000  2.000000  2.000000  2.000000  2.000000  2.000000
                       2.000000  2.000000  2.000000  2.000000  2.000000  2.000000
                       2.000000  2.000000  2.000000  2.000000  2.000000  2.000000
                       2.000000  2.000000  2.000000  2.000000  2.000000  2.000000
                       2.000000  2.000000  2.000000  2.000000  2.000000  2.000000
                       2.000000  2.000000  2.000000  2.000000  2.000000  2.000000
                       2.000000  2.000000  2.000000  2.000000  2.000000  2.000000
                       2.000000  2.000000  2.000000  2.000000  2.000000  2.000000
                       2.000000  2.000000  2.000000  2.000000  2.000000  2.000000
                       2.000000  2.000000  2.000000  2.000000  2.000000  2.000000
                       2.000000  2.000000  2.000000  2.000000  2.000000  2.000000
                       2.000000  2.000000  2.000000  2.000000  2.000000  2.000000
                       2.000000  2.000000  2.000000  2.000000  2.000000  2.000000
                       2.000000  2.000000  2.000000  2.000000  2.000000  2.000000
                       2.000000  2.000000  2.000000  2.000000  2.000000  0.000000
                       0.000000  0.000000  0.000000  0.000000  0.000000  0.000000
                       0.000000  0.000000  0.000000  0.000000  0.000000  0.000000
                       0.000000  0.000000  0.000000  0.000000  0.000000  0.000000
                       0.000000  0.000000  0.000000  0.000000  0.000000  0.000000
                       0.000000  0.000000  0.000000  0.000000  0.000000  0.000000
                       0.000000  0.000000  0.000000  0.000000  0.000000  0.000000
           occopt           3
        paral_kgb           1
        pawecutdg      1.00000000E+01 Hartree
           prtden           0
           prteig           0
            prtwf           0
          spgroup         221
           symrel      1  0  0   0  1  0   0  0  1      -1  0  0   0 -1  0   0  0 -1
                      -1  0  0   0  1  0   0  0 -1       1  0  0   0 -1  0   0  0  1
                      -1  0  0   0 -1  0   0  0  1       1  0  0   0  1  0   0  0 -1
                       1  0  0   0 -1  0   0  0 -1      -1  0  0   0  1  0   0  0  1
                       0  1  0   1  0  0   0  0  1       0 -1  0  -1  0  0   0  0 -1
                       0 -1  0   1  0  0   0  0 -1       0  1  0  -1  0  0   0  0  1
                       0 -1  0  -1  0  0   0  0  1       0  1  0   1  0  0   0  0 -1
                       0  1  0  -1  0  0   0  0 -1       0 -1  0   1  0  0   0  0  1
                       0  0  1   1  0  0   0  1  0       0  0 -1  -1  0  0   0 -1  0
                       0  0 -1   1  0  0   0 -1  0       0  0  1  -1  0  0   0  1  0
                       0  0 -1  -1  0  0   0  1  0       0  0  1   1  0  0   0 -1  0
                       0  0  1  -1  0  0   0 -1  0       0  0 -1   1  0  0   0  1  0
                       1  0  0   0  0  1   0  1  0      -1  0  0   0  0 -1   0 -1  0
                      -1  0  0   0  0  1   0 -1  0       1  0  0   0  0 -1   0  1  0
                      -1  0  0   0  0 -1   0  1  0       1  0  0   0  0  1   0 -1  0
                       1  0  0   0  0 -1   0 -1  0      -1  0  0   0  0  1   0  1  0
                       0  1  0   0  0  1   1  0  0       0 -1  0   0  0 -1  -1  0  0
                       0 -1  0   0  0  1  -1  0  0       0  1  0   0  0 -1   1  0  0
                       0 -1  0   0  0 -1   1  0  0       0  1  0   0  0  1  -1  0  0
                       0  1  0   0  0 -1  -1  0  0       0 -1  0   0  0  1   1  0  0
                       0  0  1   0  1  0   1  0  0       0  0 -1   0 -1  0  -1  0  0
                       0  0 -1   0  1  0  -1  0  0       0  0  1   0 -1  0   1  0  0
                       0  0 -1   0 -1  0   1  0  0       0  0  1   0  1  0  -1  0  0
                       0  0  1   0 -1  0  -1  0  0       0  0 -1   0  1  0   1  0  0
           timopt          -3
           toldfe      1.00000000E-05 Hartree
           tsmear      2.00000000E-03 Hartree
            typat      1  1  1  1  1  1  1  1  1  1  1  1  1  1  1  1  1  1  1  1
                       1  1  1  1  1  1  1  1  1  1  1
           useylm           1
         wfoptalg         111
           xangst      2.0293945949E+00  2.0293945949E+00  0.0000000000E+00
                       2.0293945949E+00  0.0000000000E+00  2.0293945949E+00
                       0.0000000000E+00  2.0293945949E+00  2.0293945949E+00
                       0.0000000000E+00  0.0000000000E+00  4.0587891899E+00
                       2.0293945949E+00  2.0293945949E+00  4.0587891899E+00
                       2.0293945949E+00  0.0000000000E+00  6.0881837848E+00
                       0.0000000000E+00  2.0293945949E+00  6.0881837848E+00
                       0.0000000000E+00  4.0587891899E+00  0.0000000000E+00
                       2.0293945949E+00  6.0881837848E+00  0.0000000000E+00
                       2.0293945949E+00  4.0587891899E+00  2.0293945949E+00
                       0.0000000000E+00  6.0881837848E+00  2.0293945949E+00
                       0.0000000000E+00  4.0587891899E+00  4.0587891899E+00
                       2.0293945949E+00  6.0881837848E+00  4.0587891899E+00
                       2.0293945949E+00  4.0587891899E+00  6.0881837848E+00
                       0.0000000000E+00  6.0881837848E+00  6.0881837848E+00
                       4.0587891899E+00  0.0000000000E+00  0.0000000000E+00
                       6.0881837848E+00  2.0293945949E+00  0.0000000000E+00
                       6.0881837848E+00  0.0000000000E+00  2.0293945949E+00
                       4.0587891899E+00  2.0293945949E+00  2.0293945949E+00
                       4.0587891899E+00  0.0000000000E+00  4.0587891899E+00
                       6.0881837848E+00  2.0293945949E+00  4.0587891899E+00
                       6.0881837848E+00  0.0000000000E+00  6.0881837848E+00
                       4.0587891899E+00  2.0293945949E+00  6.0881837848E+00
                       4.0587891899E+00  4.0587891899E+00  0.0000000000E+00
                       6.0881837848E+00  6.0881837848E+00  0.0000000000E+00
                       6.0881837848E+00  4.0587891899E+00  2.0293945949E+00
                       4.0587891899E+00  6.0881837848E+00  2.0293945949E+00
                       4.0587891899E+00  4.0587891899E+00  4.0587891899E+00
                       6.0881837848E+00  6.0881837848E+00  4.0587891899E+00
                       6.0881837848E+00  4.0587891899E+00  6.0881837848E+00
                       4.0587891899E+00  6.0881837848E+00  6.0881837848E+00
            xcart      3.8350000000E+00  3.8350000000E+00  0.0000000000E+00
                       3.8350000000E+00  0.0000000000E+00  3.8350000000E+00
                       0.0000000000E+00  3.8350000000E+00  3.8350000000E+00
                       0.0000000000E+00  0.0000000000E+00  7.6700000000E+00
                       3.8350000000E+00  3.8350000000E+00  7.6700000000E+00
                       3.8350000000E+00  0.0000000000E+00  1.1505000000E+01
                       0.0000000000E+00  3.8350000000E+00  1.1505000000E+01
                       0.0000000000E+00  7.6700000000E+00  0.0000000000E+00
                       3.8350000000E+00  1.1505000000E+01  0.0000000000E+00
                       3.8350000000E+00  7.6700000000E+00  3.8350000000E+00
                       0.0000000000E+00  1.1505000000E+01  3.8350000000E+00
                       0.0000000000E+00  7.6700000000E+00  7.6700000000E+00
                       3.8350000000E+00  1.1505000000E+01  7.6700000000E+00
                       3.8350000000E+00  7.6700000000E+00  1.1505000000E+01
                       0.0000000000E+00  1.1505000000E+01  1.1505000000E+01
                       7.6700000000E+00  0.0000000000E+00  0.0000000000E+00
                       1.1505000000E+01  3.8350000000E+00  0.0000000000E+00
                       1.1505000000E+01  0.0000000000E+00  3.8350000000E+00
                       7.6700000000E+00  3.8350000000E+00  3.8350000000E+00
                       7.6700000000E+00  0.0000000000E+00  7.6700000000E+00
                       1.1505000000E+01  3.8350000000E+00  7.6700000000E+00
                       1.1505000000E+01  0.0000000000E+00  1.1505000000E+01
                       7.6700000000E+00  3.8350000000E+00  1.1505000000E+01
                       7.6700000000E+00  7.6700000000E+00  0.0000000000E+00
                       1.1505000000E+01  1.1505000000E+01  0.0000000000E+00
                       1.1505000000E+01  7.6700000000E+00  3.8350000000E+00
                       7.6700000000E+00  1.1505000000E+01  3.8350000000E+00
                       7.6700000000E+00  7.6700000000E+00  7.6700000000E+00
                       1.1505000000E+01  1.1505000000E+01  7.6700000000E+00
                       1.1505000000E+01  7.6700000000E+00  1.1505000000E+01
                       7.6700000000E+00  1.1505000000E+01  1.1505000000E+01
             xred      2.5000000000E-01  2.5000000000E-01  0.0000000000E+00
                       2.5000000000E-01  0.0000000000E+00  2.5000000000E-01
                       0.0000000000E+00  2.5000000000E-01  2.5000000000E-01
                       0.0000000000E+00  0.0000000000E+00  5.0000000000E-01
                       2.5000000000E-01  2.5000000000E-01  5.0000000000E-01
                       2.5000000000E-01  0.0000000000E+00  7.5000000000E-01
                       0.0000000000E+00  2.5000000000E-01  7.5000000000E-01
                       0.0000000000E+00  5.0000000000E-01  0.0000000000E+00
                       2.5000000000E-01  7.5000000000E-01  0.0000000000E+00
                       2.5000000000E-01  5.0000000000E-01  2.5000000000E-01
                       0.0000000000E+00  7.5000000000E-01  2.5000000000E-01
                       0.0000000000E+00  5.0000000000E-01  5.0000000000E-01
                       2.5000000000E-01  7.5000000000E-01  5.0000000000E-01
                       2.5000000000E-01  5.0000000000E-01  7.5000000000E-01
                       0.0000000000E+00  7.5000000000E-01  7.5000000000E-01
                       5.0000000000E-01  0.0000000000E+00  0.0000000000E+00
                       7.5000000000E-01  2.5000000000E-01  0.0000000000E+00
                       7.5000000000E-01  0.0000000000E+00  2.5000000000E-01
                       5.0000000000E-01  2.5000000000E-01  2.5000000000E-01
                       5.0000000000E-01  0.0000000000E+00  5.0000000000E-01
                       7.5000000000E-01  2.5000000000E-01  5.0000000000E-01
                       7.5000000000E-01  0.0000000000E+00  7.5000000000E-01
                       5.0000000000E-01  2.5000000000E-01  7.5000000000E-01
                       5.0000000000E-01  5.0000000000E-01  0.0000000000E+00
                       7.5000000000E-01  7.5000000000E-01  0.0000000000E+00
                       7.5000000000E-01  5.0000000000E-01  2.5000000000E-01
                       5.0000000000E-01  7.5000000000E-01  2.5000000000E-01
                       5.0000000000E-01  5.0000000000E-01  5.0000000000E-01
                       7.5000000000E-01  7.5000000000E-01  5.0000000000E-01
                       7.5000000000E-01  5.0000000000E-01  7.5000000000E-01
                       5.0000000000E-01  7.5000000000E-01  7.5000000000E-01
            znucl       56.00000
 
================================================================================
 
 chkinp: Checking input parameters for consistency.
 
================================================================================
== DATASET  1 ==================================================================
-   nproc =    1
 
 Exchange-correlation functional for the present dataset will be:
  LDA: Perdew-Wang 92 LSD fit to Ceperley-Alder data - ixc=7
 Citation for XC functional:
  J.P.Perdew and Y.Wang, PRB 45, 13244 (1992)
 
 Real(R)+Recip(G) space primitive vectors, cartesian coordinates (Bohr,Bohr^-1):
 R(1)= 15.3400000  0.0000000  0.0000000  G(1)=  0.0651890  0.0000000  0.0000000
 R(2)=  0.0000000 15.3400000  0.0000000  G(2)=  0.0000000  0.0651890  0.0000000
 R(3)=  0.0000000  0.0000000 15.3400000  G(3)=  0.0000000  0.0000000  0.0651890
 Unit cell volume ucvol=  3.6097413E+03 bohr^3
 Angles (23,13,12)=  9.00000000E+01  9.00000000E+01  9.00000000E+01 degrees
 
 Coarse grid specifications (used for wave-functions):
 
 getcut: wavevector=  0.0000  0.0000  0.0000  ngfft=  40  40  40
         ecut(hartree)=      8.000   => boxcut(ratio)=   2.04797
 
 Fine grid specifications (used for densities):
 
 getcut: wavevector=  0.0000  0.0000  0.0000  ngfft=  45  45  45
         ecut(hartree)=     10.000   => boxcut(ratio)=   2.01494
 
--- Pseudopotential description ------------------------------------------------
- pspini: atom type   1  psp file is ../../../Psps_for_tests/ba.hpc.paw.xml
- pspatm: opening atomic psp file    ../../../Psps_for_tests/ba.hpc.paw.xml
- pspatm : Reading pseudopotential header in XML form from ../../../Psps_for_tests/ba.hpc.paw.xml
 Pseudopotential format is: paw10
 basis_size (lnmax)=  6 (lmn_size= 18), orbitals=   0   0   1   1   2   2
 Spheres core radius: rc_sph= 2.31518568
 1 radial meshes are used:
  - mesh 1: r(i)=AA*[exp(BB*(i-1))-1], size=1500 , AA= 0.15658E-03 BB= 0.87685E-02
 Shapefunction is SIN type: shapef(r)=[sin(pi*r/rshp)/(pi*r/rshp)]**2
 Radius for shape functions =  2.01210979
 mmax= 1500
 Radial grid used for partial waves is grid 1
 Radial grid used for projectors is grid 1
 Radial grid used for (t)core density is grid 1
 Radial grid used for Vloc is grid 1
 Radial grid used for pseudo valence density is grid 1
 Mesh size for Vloc has been set to 1341 to avoid numerical noise.
 Compensation charge density is not taken into account in XC energy/potential
 pspatm: atomic psp has been read  and splines computed
 
   5.70955898E+05                                ecore*ucvol(ha*bohr**3)
--------------------------------------------------------------------------------
 
_setup2: Arith. and geom. avg. npw (full set) are    3887.000    3887.000
 
================================================================================
 
     iter   Etot(hartree)      deltaE(h)  residm     nres2
 ETOT  1  -796.04577901166    -7.960E+02 7.148E-02 8.824E+00
 ETOT  2  -799.71143436313    -3.666E+00 1.316E+01 1.489E+00
 ETOT  3  -800.44006017614    -7.286E-01 4.370E-04 6.076E-01
 ETOT  4  -800.43047297596     9.587E-03 1.210E-03 1.839E-01
 ETOT  5  -799.80921121560     6.213E-01 1.169E+01 7.303E-01
 ETOT  6  -800.43608693258    -6.269E-01 5.127E-05 1.432E-01
 ETOT  7  -800.42837201471     7.715E-03 6.587E-04 2.400E-02
 ETOT  8  -800.13549304767     2.929E-01 7.203E+00 5.228E-01
 ETOT  9  -800.42531712916    -2.898E-01 3.062E-02 2.197E-02
 ETOT 10  -800.25218064268     1.731E-01 1.283E+01 4.957E-01
 ETOT 11  -800.42805157519    -1.759E-01 8.100E-06 1.512E-02
 ETOT 12  -800.42765542376     3.962E-04 9.487E-06 9.165E-03
 ETOT 13  -800.42610718419     1.548E-03 3.620E-01 6.063E-03
 ETOT 14  -800.35649537820     6.961E-02 1.362E+01 4.022E-01
 ETOT 15  -800.42725170182    -7.076E-02 6.910E-06 2.706E-03
 ETOT 16  -800.42720856053     4.314E-05 6.232E-06 2.078E-03
 ETOT 17  -800.42692991264     2.786E-04 7.040E-02 9.260E-04
 ETOT 18  -800.25472921900     1.722E-01 1.326E+01 1.934E-01
 ETOT 19  -800.42712273768    -1.724E-01 5.634E-06 6.640E-04
 ETOT 20  -800.42711521614     7.522E-06 5.640E-06 5.022E-04
 ETOT 21  -800.42664614010     4.691E-04 2.945E-02 7.369E-04
 ETOT 22  -800.30059287424     1.261E-01 1.047E+01 5.334E-01
 ETOT 23  -800.42710694002    -1.265E-01 4.820E-06 4.253E-04
 ETOT 24  -800.42710704992    -1.099E-07 4.527E-06 4.485E-04
 ETOT 25  -800.42657728929     5.298E-04 4.062E-02 3.711E-04
 ETOT 26  -800.27339085247     1.532E-01 8.314E+00 3.559E-01
 ETOT 27  -800.42710285733    -1.537E-01 3.528E-06 3.844E-04
 ETOT 28  -800.42710112000     1.737E-06 3.110E-06 4.388E-04
 ETOT 29  -800.42664856766     4.526E-04 5.087E-03 1.671E-04
 ETOT 30  -800.10937952291     3.173E-01 1.237E+01 1.256E+00
 ETOT 31  -800.42709490446    -3.177E-01 2.251E-06 1.573E-04
 ETOT 32  -800.42709377679     1.128E-06 2.093E-06 7.281E-05
 ETOT 33  -800.42631248460     7.813E-04 1.751E-01 4.002E-04
 ETOT 34  -800.29309671831     1.332E-01 1.031E+01 4.889E-01
 ETOT 35  -800.42709452847    -1.340E-01 1.485E-06 7.974E-05
 ETOT 36  -800.42709430067     2.278E-07 1.266E-06 7.254E-05
 ETOT 37  -800.42709253875     1.762E-06 2.159E-03 7.127E-05
 
 At SCF step   37, etot is converged : 
  for the second time, diff in etot=  1.762E-06 < toldfe=  1.000E-05
 
 Cartesian components of stress tensor (hartree/bohr^3)
  sigma(1 1)= -4.33583625E-03  sigma(3 2)=  0.00000000E+00
  sigma(2 2)= -4.33583625E-03  sigma(3 1)=  0.00000000E+00
  sigma(3 3)= -4.33583625E-03  sigma(2 1)=  0.00000000E+00
 
 Integrated electronic density in atomic spheres:
 ------------------------------------------------
 Atom  Sphere_radius  Integrated_density
    1        2.31519          7.04689259
    2        2.31519          7.04689259
    3        2.31519          7.04689259
    4        2.31519          6.96928374
    5        2.31519          7.10072341
    6        2.31519          7.04689259
    7        2.31519          7.04689259
    8        2.31519          6.96928374
    9        2.31519          7.04689259
   10        2.31519          7.10072341
   11        2.31519          7.04689259
   12        2.31519          7.03076053
   13        2.31519          7.10072341
   14        2.31519          7.10072341
   15        2.31519          7.04689259
   16        2.31519          6.96928374
   17        2.31519          7.04689259
   18        2.31519          7.04689259
   19        2.31519          7.10072341
   20        2.31519          7.03076053
   21        2.31519          7.10072341
   22        2.31519          7.04689259
   23        2.31519          7.10072341
   24        2.31519          7.03076053
   25        2.31519          7.04689259
   26        2.31519          7.10072341
   27        2.31519          7.10072341
   28        2.31519          7.11305348
   29        2.31519          7.10072341
   30        2.31519          7.10072341
   31        2.31519          7.10072341
 
 PAW TEST:
 ==== Compensation charge inside spheres ============
 The following values must be close to each other ...
 Compensation charge over spherical meshes =    -83.802862008384380
 Compensation charge over fine fft grid    =    -83.807523570267435
 
 ==== Results concerning PAW augmentation regions ====
 
 Total pseudopotential strength Dij (hartree):
 Atom #  1
   0.41419   0.06332   0.00047   0.00000   0.00047   0.00011   0.00000   0.00011  -0.00012   0.00000   0.00003   0.00000 ...
   0.06332   0.00885   0.00010   0.00000   0.00010   0.00008   0.00000   0.00008  -0.00003   0.00000   0.00001   0.00000 ...
   0.00047   0.00010  -0.17382   0.00000  -0.00017   0.00055   0.00000  -0.00008   0.00018   0.00000  -0.00009   0.00000 ...
   0.00000   0.00000   0.00000  -0.17373   0.00000   0.00000   0.00062   0.00000   0.00000   0.00009   0.00000   0.00009 ...
   0.00047   0.00010  -0.00017   0.00000  -0.17382  -0.00008   0.00000   0.00055   0.00018   0.00000  -0.00009   0.00000 ...
   0.00011   0.00008   0.00055   0.00000  -0.00008  -1.14548   0.00000  -0.00024   0.00017   0.00000  -0.00008   0.00000 ...
   0.00000   0.00000   0.00000   0.00062   0.00000   0.00000  -1.14528   0.00000   0.00000   0.00007   0.00000   0.00007 ...
   0.00011   0.00008  -0.00008   0.00000   0.00055  -0.00024   0.00000  -1.14548   0.00017   0.00000  -0.00008   0.00000 ...
  -0.00012  -0.00003   0.00018   0.00000   0.00018   0.00017   0.00000   0.00017  -0.03054   0.00000   0.00002   0.00000 ...
   0.00000   0.00000   0.00000   0.00009   0.00000   0.00000   0.00007   0.00000   0.00000  -0.03053   0.00000  -0.00002 ...
   0.00003   0.00001  -0.00009   0.00000  -0.00009  -0.00008   0.00000  -0.00008   0.00002   0.00000  -0.03055   0.00000 ...
   0.00000   0.00000   0.00000   0.00009   0.00000   0.00000   0.00007   0.00000   0.00000  -0.00002   0.00000  -0.03053 ...
   ...  only 12  components have been written...
 Atom # 31
   0.41595   0.06360   0.00017   0.00017   0.00000  -0.00007  -0.00007   0.00000   0.00000  -0.00006  -0.00001   0.00000 ...
   0.06360   0.00890   0.00003   0.00003   0.00000  -0.00000  -0.00000   0.00000   0.00000  -0.00001  -0.00000   0.00000 ...
   0.00017   0.00003  -0.17306  -0.00008   0.00000   0.00076  -0.00004   0.00000   0.00000   0.00003  -0.00001   0.00000 ...
   0.00017   0.00003  -0.00008  -0.17306   0.00000  -0.00004   0.00076   0.00000   0.00000   0.00003   0.00003   0.00000 ...
   0.00000   0.00000   0.00000   0.00000  -0.17300   0.00000   0.00000   0.00083   0.00002   0.00000   0.00000   0.00002 ...
  -0.00007  -0.00000   0.00076  -0.00004   0.00000  -1.14463  -0.00010   0.00000   0.00000   0.00001   0.00001   0.00000 ...
  -0.00007  -0.00000  -0.00004   0.00076   0.00000  -0.00010  -1.14463   0.00000   0.00000   0.00001  -0.00000   0.00000 ...
   0.00000   0.00000   0.00000   0.00000   0.00083   0.00000   0.00000  -1.14454  -0.00001   0.00000   0.00000  -0.00001 ...
   0.00000   0.00000   0.00000   0.00000   0.00002   0.00000   0.00000  -0.00001  -0.03040   0.00000   0.00000  -0.00001 ...
  -0.00006  -0.00001   0.00003   0.00003   0.00000   0.00001   0.00001   0.00000   0.00000  -0.03042  -0.00001   0.00000 ...
  -0.00001  -0.00000  -0.00001   0.00003   0.00000   0.00001  -0.00000   0.00000   0.00000  -0.00001  -0.03044   0.00000 ...
   0.00000   0.00000   0.00000   0.00000   0.00002   0.00000   0.00000  -0.00001  -0.00001   0.00000   0.00000  -0.03040 ...
   ...  only 12  components have been written...
 
 
 Augmentation waves occupancies Rhoij:
 Atom #  1
   2.09444  -0.12004  -0.00173   0.00000  -0.00173  -0.00027   0.00000  -0.00027   0.01818   0.00000  -0.05608   0.00000 ...
  -0.12004   0.24906   0.00181   0.00000   0.00181   0.00131   0.00000   0.00131  -0.02419   0.00000   0.06597   0.00000 ...
  -0.00173   0.00181   1.86532   0.00000   0.01690   0.01084   0.00000  -0.00191   0.01058   0.00000  -0.02939   0.00000 ...
   0.00000   0.00000   0.00000   1.88624   0.00000   0.00000   0.00875   0.00000   0.00000   0.01246   0.00000   0.01246 ...
  -0.00173   0.00181   0.01690   0.00000   1.86532  -0.00191   0.00000   0.01084   0.01058   0.00000  -0.02939   0.00000 ...
  -0.00027   0.00131   0.01084   0.00000  -0.00191   0.00151   0.00000   0.00009   0.00057   0.00000   0.00214   0.00000 ...
   0.00000   0.00000   0.00000   0.00875   0.00000   0.00000   0.00183   0.00000   0.00000  -0.00034   0.00000  -0.00034 ...
  -0.00027   0.00131  -0.00191   0.00000   0.01084   0.00009   0.00000   0.00151   0.00057   0.00000   0.00214   0.00000 ...
   0.01818  -0.02419   0.01058   0.00000   0.01058   0.00057   0.00000   0.00057   0.43415   0.00000   0.02385   0.00000 ...
   0.00000   0.00000   0.00000   0.01246   0.00000   0.00000  -0.00034   0.00000   0.00000   0.44884   0.00000  -0.04507 ...
  -0.05608   0.06597  -0.02939   0.00000  -0.02939   0.00214   0.00000   0.00214   0.02385   0.00000   0.55687   0.00000 ...
   0.00000   0.00000   0.00000   0.01246   0.00000   0.00000  -0.00034   0.00000   0.00000  -0.04507   0.00000   0.44884 ...
   ...  only 12  components have been written...
 Atom # 31
   2.11795  -0.14762  -0.00121  -0.00121   0.00000   0.00000   0.00000   0.00000   0.00000  -0.00919  -0.00978   0.00000 ...
  -0.14762   0.28785   0.00209   0.00209   0.00000  -0.00017  -0.00017   0.00000   0.00000   0.00817   0.00927   0.00000 ...
  -0.00121   0.00209   1.85303   0.00719   0.00000   0.01216  -0.00073   0.00000   0.00000   0.00375  -0.00852   0.00000 ...
  -0.00121   0.00209   0.00719   1.85303   0.00000  -0.00073   0.01216   0.00000   0.00000   0.00375  -0.00158   0.00000 ...
   0.00000   0.00000   0.00000   0.00000   1.88137   0.00000   0.00000   0.00959  -0.01497   0.00000   0.00000  -0.01497 ...
   0.00000  -0.00017   0.01216  -0.00073   0.00000   0.00156   0.00004   0.00000   0.00000  -0.00017   0.00068   0.00000 ...
   0.00000  -0.00017  -0.00073   0.01216   0.00000   0.00004   0.00156   0.00000   0.00000  -0.00017   0.00056   0.00000 ...
   0.00000   0.00000   0.00000   0.00000   0.00959   0.00000   0.00000   0.00185   0.00167   0.00000   0.00000   0.00167 ...
   0.00000   0.00000   0.00000   0.00000  -0.01497   0.00000   0.00000   0.00167   0.49335   0.00000   0.00000  -0.03662 ...
  -0.00919   0.00817   0.00375   0.00375   0.00000  -0.00017  -0.00017   0.00000   0.00000   0.46393   0.01359   0.00000 ...
  -0.00978   0.00927  -0.00852  -0.00158   0.00000   0.00068   0.00056   0.00000   0.00000   0.01359   0.53509   0.00000 ...
   0.00000   0.00000   0.00000   0.00000  -0.01497   0.00000   0.00000   0.00167  -0.03662   0.00000   0.00000   0.49335 ...
   ...  only 12  components have been written...
 
 
================================================================================
 
 ----iterations are completed or convergence reached----
 
 Mean square residual over all n,k,spin=   40.856E-06; max=  21.590E-04
 reduced coordinates (array xred) for   31 atoms
       0.250000000000      0.250000000000      0.000000000000
       0.250000000000      0.000000000000      0.250000000000
       0.000000000000      0.250000000000      0.250000000000
       0.000000000000      0.000000000000      0.500000000000
       0.250000000000      0.250000000000      0.500000000000
       0.250000000000      0.000000000000      0.750000000000
       0.000000000000      0.250000000000      0.750000000000
       0.000000000000      0.500000000000      0.000000000000
       0.250000000000      0.750000000000      0.000000000000
       0.250000000000      0.500000000000      0.250000000000
       0.000000000000      0.750000000000      0.250000000000
       0.000000000000      0.500000000000      0.500000000000
       0.250000000000      0.750000000000      0.500000000000
       0.250000000000      0.500000000000      0.750000000000
       0.000000000000      0.750000000000      0.750000000000
       0.500000000000      0.000000000000      0.000000000000
       0.750000000000      0.250000000000      0.000000000000
       0.750000000000      0.000000000000      0.250000000000
       0.500000000000      0.250000000000      0.250000000000
       0.500000000000      0.000000000000      0.500000000000
       0.750000000000      0.250000000000      0.500000000000
       0.750000000000      0.000000000000      0.750000000000
       0.500000000000      0.250000000000      0.750000000000
       0.500000000000      0.500000000000      0.000000000000
       0.750000000000      0.750000000000      0.000000000000
       0.750000000000      0.500000000000      0.250000000000
       0.500000000000      0.750000000000      0.250000000000
       0.500000000000      0.500000000000      0.500000000000
       0.750000000000      0.750000000000      0.500000000000
       0.750000000000      0.500000000000      0.750000000000
       0.500000000000      0.750000000000      0.750000000000
 rms dE/dt=  2.0549E-01; max dE/dt=  3.9282E-01; dE/dt below (all hartree)
    1       0.392820721127      0.392820721127     -0.000000000000
    2       0.392820721127      0.000000000000      0.392820721127
    3       0.000000000000      0.392820721127      0.392820721127
    4       0.000000000000      0.000000000000      0.000000000000
    5      -0.096546436282     -0.096546436282     -0.000000000000
    6       0.392820721127     -0.000000000000     -0.392820721127
    7       0.000000000000      0.392820721127     -0.392820721127
    8       0.000000000000      0.000000000000      0.000000000000
    9       0.392820721127     -0.392820721127     -0.000000000000
   10      -0.096546436282     -0.000000000000     -0.096546436282
   11       0.000000000000     -0.392820721127      0.392820721127
   12       0.000000000000      0.000000000000      0.000000000000
   13      -0.096546436282      0.096546436282      0.000000000000
   14      -0.096546436282     -0.000000000000      0.096546436282
   15       0.000000000000     -0.392820721127     -0.392820721127
   16       0.000000000000      0.000000000000      0.000000000000
   17      -0.392820721127      0.392820721127      0.000000000000
   18      -0.392820721127      0.000000000000      0.392820721127
   19      -0.000000000000     -0.096546436282     -0.096546436282
   20       0.000000000000      0.000000000000      0.000000000000
   21       0.096546436282     -0.096546436282     -0.000000000000
   22      -0.392820721127      0.000000000000     -0.392820721127
   23      -0.000000000000     -0.096546436282      0.096546436282
   24       0.000000000000      0.000000000000      0.000000000000
   25      -0.392820721127     -0.392820721127      0.000000000000
   26       0.096546436282      0.000000000000     -0.096546436282
   27       0.000000000000      0.096546436282     -0.096546436282
   28       0.000000000000      0.000000000000      0.000000000000
   29       0.096546436282      0.096546436282      0.000000000000
   30       0.096546436282      0.000000000000      0.096546436282
   31       0.000000000000      0.096546436282      0.096546436282
 
 cartesian coordinates (angstrom) at end:
    1      2.02939459494265     2.02939459494265     0.00000000000000
    2      2.02939459494265     0.00000000000000     2.02939459494265
    3      0.00000000000000     2.02939459494265     2.02939459494265
    4      0.00000000000000     0.00000000000000     4.05878918988530
    5      2.02939459494265     2.02939459494265     4.05878918988530
    6      2.02939459494265     0.00000000000000     6.08818378482795
    7      0.00000000000000     2.02939459494265     6.08818378482795
    8      0.00000000000000     4.05878918988530     0.00000000000000
    9      2.02939459494265     6.08818378482795     0.00000000000000
   10      2.02939459494265     4.05878918988530     2.02939459494265
   11      0.00000000000000     6.08818378482795     2.02939459494265
   12      0.00000000000000     4.05878918988530     4.05878918988530
   13      2.02939459494265     6.08818378482795     4.05878918988530
   14      2.02939459494265     4.05878918988530     6.08818378482795
   15      0.00000000000000     6.08818378482795     6.08818378482795
   16      4.05878918988530     0.00000000000000     0.00000000000000
   17      6.08818378482795     2.02939459494265     0.00000000000000
   18      6.08818378482795     0.00000000000000     2.02939459494265
   19      4.05878918988530     2.02939459494265     2.02939459494265
   20      4.05878918988530     0.00000000000000     4.05878918988530
   21      6.08818378482795     2.02939459494265     4.05878918988530
   22      6.08818378482795     0.00000000000000     6.08818378482795
   23      4.05878918988530     2.02939459494265     6.08818378482795
   24      4.05878918988530     4.05878918988530     0.00000000000000
   25      6.08818378482795     6.08818378482795     0.00000000000000
   26      6.08818378482795     4.05878918988530     2.02939459494265
   27      4.05878918988530     6.08818378482795     2.02939459494265
   28      4.05878918988530     4.05878918988530     4.05878918988530
   29      6.08818378482795     6.08818378482795     4.05878918988530
   30      6.08818378482795     4.05878918988530     6.08818378482795
   31      4.05878918988530     6.08818378482795     6.08818378482795
 
 cartesian forces (hartree/bohr) at end:
    1     -0.02560760893917    -0.02560760893917     0.00000000000000
    2     -0.02560760893917    -0.00000000000000    -0.02560760893917
    3     -0.00000000000000    -0.02560760893917    -0.02560760893917
    4     -0.00000000000000    -0.00000000000000     0.00000000000000
    5      0.00629377029218     0.00629377029218     0.00000000000000
    6     -0.02560760893917    -0.00000000000000     0.02560760893917
    7     -0.00000000000000    -0.02560760893917     0.02560760893917
    8     -0.00000000000000    -0.00000000000000     0.00000000000000
    9     -0.02560760893917     0.02560760893917     0.00000000000000
   10      0.00629377029218    -0.00000000000000     0.00629377029218
   11     -0.00000000000000     0.02560760893917    -0.02560760893917
   12     -0.00000000000000    -0.00000000000000     0.00000000000000
   13      0.00629377029218    -0.00629377029218    -0.00000000000000
   14      0.00629377029218    -0.00000000000000    -0.00629377029218
   15     -0.00000000000000     0.02560760893917     0.02560760893917
   16     -0.00000000000000    -0.00000000000000     0.00000000000000
   17      0.02560760893917    -0.02560760893917    -0.00000000000000
   18      0.02560760893917    -0.00000000000000    -0.02560760893917
   19     -0.00000000000000     0.00629377029218     0.00629377029218
   20     -0.00000000000000    -0.00000000000000     0.00000000000000
   21     -0.00629377029218     0.00629377029218     0.00000000000000
   22      0.02560760893917    -0.00000000000000     0.02560760893917
   23     -0.00000000000000     0.00629377029218    -0.00629377029218
   24     -0.00000000000000    -0.00000000000000     0.00000000000000
   25      0.02560760893917     0.02560760893917    -0.00000000000000
   26     -0.00629377029218    -0.00000000000000     0.00629377029218
   27     -0.00000000000000    -0.00629377029218     0.00629377029218
   28     -0.00000000000000    -0.00000000000000     0.00000000000000
   29     -0.00629377029218    -0.00629377029218    -0.00000000000000
   30     -0.00629377029218    -0.00000000000000    -0.00629377029218
   31     -0.00000000000000    -0.00629377029218    -0.00629377029218
 frms,max,avg= 1.3395822E-02 2.5607609E-02   0.000E+00  0.000E+00  0.000E+00 h/b
 
 cartesian forces (eV/Angstrom) at end:
    1     -1.31679608507167    -1.31679608507167     0.00000000000000
    2     -1.31679608507167    -0.00000000000000    -1.31679608507167
    3     -0.00000000000000    -1.31679608507167    -1.31679608507167
    4     -0.00000000000000    -0.00000000000000     0.00000000000000
    5      0.32363865368208     0.32363865368208     0.00000000000000
    6     -1.31679608507167    -0.00000000000000     1.31679608507167
    7     -0.00000000000000    -1.31679608507167     1.31679608507167
    8     -0.00000000000000    -0.00000000000000     0.00000000000000
    9     -1.31679608507167     1.31679608507167     0.00000000000000
   10      0.32363865368208    -0.00000000000000     0.32363865368208
   11     -0.00000000000000     1.31679608507167    -1.31679608507167
   12     -0.00000000000000    -0.00000000000000     0.00000000000000
   13      0.32363865368208    -0.32363865368208    -0.00000000000000
   14      0.32363865368208    -0.00000000000000    -0.32363865368208
   15     -0.00000000000000     1.31679608507167     1.31679608507167
   16     -0.00000000000000    -0.00000000000000     0.00000000000000
   17      1.31679608507167    -1.31679608507167    -0.00000000000000
   18      1.31679608507167    -0.00000000000000    -1.31679608507167
   19     -0.00000000000000     0.32363865368208     0.32363865368208
   20     -0.00000000000000    -0.00000000000000     0.00000000000000
   21     -0.32363865368208     0.32363865368208     0.00000000000000
   22      1.31679608507167    -0.00000000000000     1.31679608507167
   23     -0.00000000000000     0.32363865368208    -0.32363865368208
   24     -0.00000000000000    -0.00000000000000     0.00000000000000
   25      1.31679608507167     1.31679608507167    -0.00000000000000
   26     -0.32363865368208    -0.00000000000000     0.32363865368208
   27     -0.00000000000000    -0.32363865368208     0.32363865368208
   28     -0.00000000000000    -0.00000000000000     0.00000000000000
   29     -0.32363865368208    -0.32363865368208    -0.00000000000000
   30     -0.32363865368208    -0.00000000000000    -0.32363865368208
   31     -0.00000000000000    -0.32363865368208    -0.32363865368208
 frms,max,avg= 6.8884080E-01 1.3167961E+00   0.000E+00  0.000E+00  0.000E+00 e/A
 length scales= 15.340000000000 15.340000000000 15.340000000000 bohr
              =  8.117578379771  8.117578379771  8.117578379771 angstroms
 Fermi (or HOMO) energy (hartree) =   0.39068   Average Vxc (hartree)=  -0.49569
 Eigenvalues (hartree) for nkpt=   1  k points:
 kpt#   1, nband=192, wtk=  1.00000, kpt=  0.0000  0.0000  0.0000 (reduced coord)
  -0.78406   -0.72610   -0.72610   -0.72056   -0.72056   -0.72056   -0.70843   -0.67949
  -0.67949   -0.67316   -0.67316   -0.67316   -0.67312   -0.67288   -0.67288   -0.67288
  -0.66984   -0.66984   -0.66984   -0.66250   -0.66250   -0.66250   -0.63149   -0.61899
  -0.61807   -0.61807   -0.61434   -0.61434   -0.61278   -0.61278   -0.61278   -0.33389
  -0.32897   -0.32897   -0.32897   -0.30075   -0.30075   -0.30075   -0.23772   -0.23651
  -0.23651   -0.23651   -0.23101   -0.23101   -0.23101   -0.23040   -0.23040   -0.23040
  -0.22869   -0.22869   -0.22861   -0.22861   -0.22861   -0.22797   -0.22797   -0.22797
  -0.22436   -0.22436   -0.22436   -0.20394   -0.20394   -0.20394   -0.15896   -0.15896
  -0.15869   -0.15869   -0.15869   -0.15562   -0.14971   -0.14971   -0.14971   -0.14832
  -0.14832   -0.14832   -0.14663   -0.13817   -0.13817   -0.13421   -0.13421   -0.13421
  -0.13047   -0.12297   -0.12297   -0.11517   -0.11517   -0.11517   -0.09751   -0.09751
  -0.09751   -0.07523   -0.07523   -0.07523   -0.03846   -0.03846   -0.03846   -0.03799
  -0.03799   -0.03799   -0.03320   -0.03320   -0.03320   -0.02037   -0.02037   -0.02037
  -0.00438   -0.00438   -0.00438   -0.00269   -0.00235   -0.00235   -0.00235   -0.00189
  -0.00189   -0.00189    0.00265    0.00265    0.00330    0.00330    0.00663    0.00663
   0.00663    0.05260    0.05260    0.05260    0.21688    0.23242    0.23242    0.24537
   0.24537    0.24537    0.31473    0.31857    0.31857    0.32858    0.32858    0.32858
   0.32958    0.36303    0.36303    0.36303    0.36631    0.37806    0.37806    0.37806
   0.38015    0.38015    0.38217    0.38217    0.38217    0.38442    0.38492    0.38492
   0.38492    0.39139    0.39139    0.39214    0.39214    0.39214    0.39409    0.39409
   0.39409    0.40312    0.42649    0.42649    0.46376    0.46376    0.46376    0.46520
   0.46520    0.46520    0.48260    0.48569    0.48569    0.48569    0.48845    0.48845
   0.49621    0.49621    0.49621    0.52395    0.52395    0.52395    0.52987    0.52987
   0.52987    0.53172    0.53172    0.53173    0.53643    0.53644    0.53666    0.54112
      occupation numbers for kpt#   1
   2.00000    2.00000    2.00000    2.00000    2.00000    2.00000    2.00000    2.00000
   2.00000    2.00000    2.00000    2.00000    2.00000    2.00000    2.00000    2.00000
   2.00000    2.00000    2.00000    2.00000    2.00000    2.00000    2.00000    2.00000
   2.00000    2.00000    2.00000    2.00000    2.00000    2.00000    2.00000    2.00000
   2.00000    2.00000    2.00000    2.00000    2.00000    2.00000    2.00000    2.00000
   2.00000    2.00000    2.00000    2.00000    2.00000    2.00000    2.00000    2.00000
   2.00000    2.00000    2.00000    2.00000    2.00000    2.00000    2.00000    2.00000
   2.00000    2.00000    2.00000    2.00000    2.00000    2.00000    2.00000    2.00000
   2.00000    2.00000    2.00000    2.00000    2.00000    2.00000    2.00000    2.00000
   2.00000    2.00000    2.00000    2.00000    2.00000    2.00000    2.00000    2.00000
   2.00000    2.00000    2.00000    2.00000    2.00000    2.00000    2.00000    2.00000
   2.00000    2.00000    2.00000    2.00000    2.00000    2.00000    2.00000    2.00000
   2.00000    2.00000    2.00000    2.00000    2.00000    2.00000    2.00000    2.00000
   2.00000    2.00000    2.00000    2.00000    2.00000    2.00000    2.00000    2.00000
   2.00000    2.00000    2.00000    2.00000    2.00000    2.00000    2.00000    2.00000
   2.00000    2.00000    2.00000    2.00000    2.00000    2.00000    2.00000    2.00000
   2.00000    2.00000    2.00000    2.00000    2.00000    2.00000    2.00000    2.00000
   2.00000    2.00000    2.00000    2.00000    1.99999    1.99637    1.99637    1.99637
   1.98968    1.98968    1.97196    1.97196    1.97196    1.91603    1.89355    1.89355
   1.89355    0.82301    0.82301    0.64885    0.64885    0.64885    0.30749    0.30749
   0.30749    0.00396    0.00000    0.00000    0.00000    0.00000    0.00000    0.00000
   0.00000    0.00000    0.00000    0.00000    0.00000    0.00000    0.00000    0.00000
   0.00000    0.00000    0.00000    0.00000    0.00000    0.00000    0.00000    0.00000
   0.00000    0.00000    0.00000    0.00000    0.00000    0.00000    0.00000    0.00000
 
--------------------------------------------------------------------------------
 Components of total free energy (in Hartree) :
 
    Kinetic energy  =  3.06298073159755E+02
    Hartree energy  =  3.63339049125077E+01
    XC energy       = -1.89091995005904E+02
    Ewald energy    = -9.05896420881061E+02
    PspCore energy  =  1.58170863145426E+02
    Loc. psp. energy= -1.22018606757927E+02
    Spherical terms = -8.41981268201210E+01
    >>>>> Internal E= -8.00402308247323E+02
 
    -kT*entropy     = -2.26830333998427E-02
    >>>>>>>>> Etotal= -8.00424991280723E+02
 
 "Double-counting" decomposition of free energy:
    Band energy     = -4.40498014599821E+01
    Ewald energy    =-9.05896420881061E+02
    PspCore energy  =  1.58170863145426E+02
    Dble-C XC-energy=  1.75588879998248E+01
    Spherical terms = -2.61879383095590E+01
    >>>>> Internal E= -8.00404409505351E+02
 
    -kT*entropy     = -2.26830333998427E-02
    >>>> Etotal (DC)= -8.00427092538751E+02
 
  >Total energy in eV           = -2.17806716888769E+04
  >Total DC energy in eV        = -2.17807288670157E+04
--------------------------------------------------------------------------------
 
 
 
 
 
 Cartesian components of stress tensor (hartree/bohr^3)
  sigma(1 1)= -4.33583625E-03  sigma(3 2)=  0.00000000E+00
  sigma(2 2)= -4.33583625E-03  sigma(3 1)=  0.00000000E+00
  sigma(3 3)= -4.33583625E-03  sigma(2 1)=  0.00000000E+00
 
-Cartesian components of stress tensor (GPa)         [Pressure=  1.2756E+02 GPa]
- sigma(1 1)= -1.27564685E+02  sigma(3 2)=  0.00000000E+00
- sigma(2 2)= -1.27564685E+02  sigma(3 1)=  0.00000000E+00
- sigma(3 3)= -1.27564685E+02  sigma(2 1)=  0.00000000E+00
 
== END DATASET(S) ==============================================================
================================================================================
  
 -outvars: echo values of variables after computation  --------
-          iomode           1
            acell      1.5340000000E+01  1.5340000000E+01  1.5340000000E+01 Bohr
              amu      1.37327000E+02
           bandpp         192
      chksymbreak           0
     densfor_pred           6
             ecut      8.00000000E+00 Hartree
           etotal     -8.0042709254E+02
            fcart     -2.5607608939E-02 -2.5607608939E-02  7.0212391738E-29
                      -2.5607608939E-02 -1.3989705451E-19 -2.5607608939E-02
                      -4.4767057444E-19 -2.5607608939E-02 -2.5607608939E-02
                      -4.4767057444E-19 -1.3989705451E-19  0.0000000000E+00
                       6.2937702922E-03  6.2937702922E-03  1.4042478348E-28
                      -2.5607608939E-02 -1.3989705395E-19  2.5607608939E-02
                      -4.4767057444E-19 -2.5607608939E-02  2.5607608939E-02
                      -4.4767057444E-19 -1.3989705451E-19  0.0000000000E+00
                      -2.5607608939E-02  2.5607608939E-02  6.3198009243E-28
                       6.2937702922E-03 -1.3989705423E-19  6.2937702922E-03
                      -4.4767057444E-19  2.5607608939E-02 -2.5607608939E-02
                      -4.4767057444E-19 -1.3989705451E-19  0.0000000000E+00
                       6.2937702922E-03 -6.2937702922E-03 -6.9289311344E-28
                       6.2937702922E-03 -1.3989705360E-19 -6.2937702922E-03
                      -4.4767057444E-19  2.5607608939E-02  2.5607608939E-02
                      -4.4767057444E-19 -1.3989705451E-19  0.0000000000E+00
                       2.5607608939E-02 -2.5607608939E-02 -6.3194580904E-28
                       2.5607608939E-02 -1.3989705508E-19 -2.5607608939E-02
                      -4.4767057430E-19  6.2937702922E-03  6.2937702922E-03
                      -4.4767057444E-19 -1.3989705451E-19  0.0000000000E+00
                      -6.2937702922E-03  6.2937702922E-03  6.9286740089E-28
                       2.5607608939E-02 -1.3989705451E-19  2.5607608939E-02
                      -4.4767057416E-19  6.2937702922E-03 -6.2937702922E-03
                      -4.4767057444E-19 -1.3989705451E-19  0.0000000000E+00
                       2.5607608939E-02  2.5607608939E-02 -7.0212391738E-29
                      -6.2937702922E-03 -1.3989705543E-19  6.2937702922E-03
                      -4.4767057472E-19 -6.2937702922E-03  6.2937702922E-03
                      -4.4767057444E-19 -1.3989705451E-19  0.0000000000E+00
                      -6.2937702922E-03 -6.2937702922E-03 -1.4042478348E-28
                      -6.2937702922E-03 -1.3989705480E-19 -6.2937702922E-03
                      -4.4767057458E-19 -6.2937702922E-03 -6.2937702922E-03
-          fftalg         312
           istwfk        1
              ixc           7
           kptopt           0
P           mkmem           1
            natom          31
            nband         192
            ngfft          40      40      40
          ngfftdg          45      45      45
             nkpt           1
            nline           9
            nstep          40
             nsym          48
           ntypat           1
              occ      2.000000  2.000000  2.000000  2.000000  2.000000  2.000000
                       2.000000  2.000000  2.000000  2.000000  2.000000  2.000000
                       2.000000  2.000000  2.000000  2.000000  2.000000  2.000000
                       2.000000  2.000000  2.000000  2.000000  2.000000  2.000000
                       2.000000  2.000000  2.000000  2.000000  2.000000  2.000000
                       2.000000  2.000000  2.000000  2.000000  2.000000  2.000000
                       2.000000  2.000000  2.000000  2.000000  2.000000  2.000000
                       2.000000  2.000000  2.000000  2.000000  2.000000  2.000000
                       2.000000  2.000000  2.000000  2.000000  2.000000  2.000000
                       2.000000  2.000000  2.000000  2.000000  2.000000  2.000000
                       2.000000  2.000000  2.000000  2.000000  2.000000  2.000000
                       2.000000  2.000000  2.000000  2.000000  2.000000  2.000000
                       2.000000  2.000000  2.000000  2.000000  2.000000  2.000000
                       2.000000  2.000000  2.000000  2.000000  2.000000  2.000000
                       2.000000  2.000000  2.000000  2.000000  2.000000  2.000000
                       2.000000  2.000000  2.000000  2.000000  2.000000  2.000000
                       2.000000  2.000000  2.000000  2.000000  2.000000  2.000000
                       2.000000  2.000000  2.000000  2.000000  2.000000  2.000000
                       2.000000  2.000000  2.000000  2.000000  2.000000  2.000000
                       2.000000  2.000000  2.000000  2.000000  2.000000  2.000000
                       2.000000  2.000000  2.000000  2.000000  2.000000  2.000000
                       2.000000  2.000000  2.000000  2.000000  2.000000  2.000000
                       2.000000  2.000000  2.000000  2.000000  2.000000  1.999998
                       1.999998  1.999998  1.999990  1.996367  1.996367  1.996367
                       1.989680  1.989680  1.971965  1.971965  1.971965  1.916030
                       1.893551  1.893551  1.893551  0.823006  0.823006  0.648848
                       0.648848  0.648848  0.307487  0.307487  0.307487  0.003962
                       0.000000  0.000000  0.000000  0.000000  0.000000  0.000000
                       0.000000  0.000000  0.000000  0.000000  0.000000  0.000000
                       0.000000  0.000000  0.000000  0.000000  0.000000  0.000000
                       0.000000  0.000000  0.000000  0.000000  0.000000  0.000000
                       0.000000  0.000000  0.000000  0.000000  0.000000  0.000000
           occopt           3
        paral_kgb           1
        pawecutdg      1.00000000E+01 Hartree
           prtden           0
           prteig           0
            prtwf           0
          spgroup         221
           strten     -4.3358362496E-03 -4.3358362496E-03 -4.3358362496E-03
                       0.0000000000E+00  0.0000000000E+00  0.0000000000E+00
           symrel      1  0  0   0  1  0   0  0  1      -1  0  0   0 -1  0   0  0 -1
                      -1  0  0   0  1  0   0  0 -1       1  0  0   0 -1  0   0  0  1
                      -1  0  0   0 -1  0   0  0  1       1  0  0   0  1  0   0  0 -1
                       1  0  0   0 -1  0   0  0 -1      -1  0  0   0  1  0   0  0  1
                       0  1  0   1  0  0   0  0  1       0 -1  0  -1  0  0   0  0 -1
                       0 -1  0   1  0  0   0  0 -1       0  1  0  -1  0  0   0  0  1
                       0 -1  0  -1  0  0   0  0  1       0  1  0   1  0  0   0  0 -1
                       0  1  0  -1  0  0   0  0 -1       0 -1  0   1  0  0   0  0  1
                       0  0  1   1  0  0   0  1  0       0  0 -1  -1  0  0   0 -1  0
                       0  0 -1   1  0  0   0 -1  0       0  0  1  -1  0  0   0  1  0
                       0  0 -1  -1  0  0   0  1  0       0  0  1   1  0  0   0 -1  0
                       0  0  1  -1  0  0   0 -1  0       0  0 -1   1  0  0   0  1  0
                       1  0  0   0  0  1   0  1  0      -1  0  0   0  0 -1   0 -1  0
                      -1  0  0   0  0  1   0 -1  0       1  0  0   0  0 -1   0  1  0
                      -1  0  0   0  0 -1   0  1  0       1  0  0   0  0  1   0 -1  0
                       1  0  0   0  0 -1   0 -1  0      -1  0  0   0  0  1   0  1  0
                       0  1  0   0  0  1   1  0  0       0 -1  0   0  0 -1  -1  0  0
                       0 -1  0   0  0  1  -1  0  0       0  1  0   0  0 -1   1  0  0
                       0 -1  0   0  0 -1   1  0  0       0  1  0   0  0  1  -1  0  0
                       0  1  0   0  0 -1  -1  0  0       0 -1  0   0  0  1   1  0  0
                       0  0  1   0  1  0   1  0  0       0  0 -1   0 -1  0  -1  0  0
                       0  0 -1   0  1  0  -1  0  0       0  0  1   0 -1  0   1  0  0
                       0  0 -1   0 -1  0   1  0  0       0  0  1   0  1  0  -1  0  0
                       0  0  1   0 -1  0  -1  0  0       0  0 -1   0  1  0   1  0  0
           timopt          -3
           toldfe      1.00000000E-05 Hartree
           tsmear      2.00000000E-03 Hartree
            typat      1  1  1  1  1  1  1  1  1  1  1  1  1  1  1  1  1  1  1  1
                       1  1  1  1  1  1  1  1  1  1  1
           useylm           1
         wfoptalg         111
           xangst      2.0293945949E+00  2.0293945949E+00  0.0000000000E+00
                       2.0293945949E+00  0.0000000000E+00  2.0293945949E+00
                       0.0000000000E+00  2.0293945949E+00  2.0293945949E+00
                       0.0000000000E+00  0.0000000000E+00  4.0587891899E+00
                       2.0293945949E+00  2.0293945949E+00  4.0587891899E+00
                       2.0293945949E+00  0.0000000000E+00  6.0881837848E+00
                       0.0000000000E+00  2.0293945949E+00  6.0881837848E+00
                       0.0000000000E+00  4.0587891899E+00  0.0000000000E+00
                       2.0293945949E+00  6.0881837848E+00  0.0000000000E+00
                       2.0293945949E+00  4.0587891899E+00  2.0293945949E+00
                       0.0000000000E+00  6.0881837848E+00  2.0293945949E+00
                       0.0000000000E+00  4.0587891899E+00  4.0587891899E+00
                       2.0293945949E+00  6.0881837848E+00  4.0587891899E+00
                       2.0293945949E+00  4.0587891899E+00  6.0881837848E+00
                       0.0000000000E+00  6.0881837848E+00  6.0881837848E+00
                       4.0587891899E+00  0.0000000000E+00  0.0000000000E+00
                       6.0881837848E+00  2.0293945949E+00  0.0000000000E+00
                       6.0881837848E+00  0.0000000000E+00  2.0293945949E+00
                       4.0587891899E+00  2.0293945949E+00  2.0293945949E+00
                       4.0587891899E+00  0.0000000000E+00  4.0587891899E+00
                       6.0881837848E+00  2.0293945949E+00  4.0587891899E+00
                       6.0881837848E+00  0.0000000000E+00  6.0881837848E+00
                       4.0587891899E+00  2.0293945949E+00  6.0881837848E+00
                       4.0587891899E+00  4.0587891899E+00  0.0000000000E+00
                       6.0881837848E+00  6.0881837848E+00  0.0000000000E+00
                       6.0881837848E+00  4.0587891899E+00  2.0293945949E+00
                       4.0587891899E+00  6.0881837848E+00  2.0293945949E+00
                       4.0587891899E+00  4.0587891899E+00  4.0587891899E+00
                       6.0881837848E+00  6.0881837848E+00  4.0587891899E+00
                       6.0881837848E+00  4.0587891899E+00  6.0881837848E+00
                       4.0587891899E+00  6.0881837848E+00  6.0881837848E+00
            xcart      3.8350000000E+00  3.8350000000E+00  0.0000000000E+00
                       3.8350000000E+00  0.0000000000E+00  3.8350000000E+00
                       0.0000000000E+00  3.8350000000E+00  3.8350000000E+00
                       0.0000000000E+00  0.0000000000E+00  7.6700000000E+00
                       3.8350000000E+00  3.8350000000E+00  7.6700000000E+00
                       3.8350000000E+00  0.0000000000E+00  1.1505000000E+01
                       0.0000000000E+00  3.8350000000E+00  1.1505000000E+01
                       0.0000000000E+00  7.6700000000E+00  0.0000000000E+00
                       3.8350000000E+00  1.1505000000E+01  0.0000000000E+00
                       3.8350000000E+00  7.6700000000E+00  3.8350000000E+00
                       0.0000000000E+00  1.1505000000E+01  3.8350000000E+00
                       0.0000000000E+00  7.6700000000E+00  7.6700000000E+00
                       3.8350000000E+00  1.1505000000E+01  7.6700000000E+00
                       3.8350000000E+00  7.6700000000E+00  1.1505000000E+01
                       0.0000000000E+00  1.1505000000E+01  1.1505000000E+01
                       7.6700000000E+00  0.0000000000E+00  0.0000000000E+00
                       1.1505000000E+01  3.8350000000E+00  0.0000000000E+00
                       1.1505000000E+01  0.0000000000E+00  3.8350000000E+00
                       7.6700000000E+00  3.8350000000E+00  3.8350000000E+00
                       7.6700000000E+00  0.0000000000E+00  7.6700000000E+00
                       1.1505000000E+01  3.8350000000E+00  7.6700000000E+00
                       1.1505000000E+01  0.0000000000E+00  1.1505000000E+01
                       7.6700000000E+00  3.8350000000E+00  1.1505000000E+01
                       7.6700000000E+00  7.6700000000E+00  0.0000000000E+00
                       1.1505000000E+01  1.1505000000E+01  0.0000000000E+00
                       1.1505000000E+01  7.6700000000E+00  3.8350000000E+00
                       7.6700000000E+00  1.1505000000E+01  3.8350000000E+00
                       7.6700000000E+00  7.6700000000E+00  7.6700000000E+00
                       1.1505000000E+01  1.1505000000E+01  7.6700000000E+00
                       1.1505000000E+01  7.6700000000E+00  1.1505000000E+01
                       7.6700000000E+00  1.1505000000E+01  1.1505000000E+01
             xred      2.5000000000E-01  2.5000000000E-01  0.0000000000E+00
                       2.5000000000E-01  0.0000000000E+00  2.5000000000E-01
                       0.0000000000E+00  2.5000000000E-01  2.5000000000E-01
                       0.0000000000E+00  0.0000000000E+00  5.0000000000E-01
                       2.5000000000E-01  2.5000000000E-01  5.0000000000E-01
                       2.5000000000E-01  0.0000000000E+00  7.5000000000E-01
                       0.0000000000E+00  2.5000000000E-01  7.5000000000E-01
                       0.0000000000E+00  5.0000000000E-01  0.0000000000E+00
                       2.5000000000E-01  7.5000000000E-01  0.0000000000E+00
                       2.5000000000E-01  5.0000000000E-01  2.5000000000E-01
                       0.0000000000E+00  7.5000000000E-01  2.5000000000E-01
                       0.0000000000E+00  5.0000000000E-01  5.0000000000E-01
                       2.5000000000E-01  7.5000000000E-01  5.0000000000E-01
                       2.5000000000E-01  5.0000000000E-01  7.5000000000E-01
                       0.0000000000E+00  7.5000000000E-01  7.5000000000E-01
                       5.0000000000E-01  0.0000000000E+00  0.0000000000E+00
                       7.5000000000E-01  2.5000000000E-01  0.0000000000E+00
                       7.5000000000E-01  0.0000000000E+00  2.5000000000E-01
                       5.0000000000E-01  2.5000000000E-01  2.5000000000E-01
                       5.0000000000E-01  0.0000000000E+00  5.0000000000E-01
                       7.5000000000E-01  2.5000000000E-01  5.0000000000E-01
                       7.5000000000E-01  0.0000000000E+00  7.5000000000E-01
                       5.0000000000E-01  2.5000000000E-01  7.5000000000E-01
                       5.0000000000E-01  5.0000000000E-01  0.0000000000E+00
                       7.5000000000E-01  7.5000000000E-01  0.0000000000E+00
                       7.5000000000E-01  5.0000000000E-01  2.5000000000E-01
                       5.0000000000E-01  7.5000000000E-01  2.5000000000E-01
                       5.0000000000E-01  5.0000000000E-01  5.0000000000E-01
                       7.5000000000E-01  7.5000000000E-01  5.0000000000E-01
                       7.5000000000E-01  5.0000000000E-01  7.5000000000E-01
                       5.0000000000E-01  7.5000000000E-01  7.5000000000E-01
            znucl       56.00000
 
================================================================================
 
 Test the timer : 
  a combined call timab(*,1,tsec) + timab(*,2,tsec) is 
- CPU time =    3.7716E-05 sec,    Wall time =    3.2155E-06 sec

- Total cpu        time (s,m,h):       2517.2       41.95      0.699
- Total wall clock time (s,m,h):        215.5        3.59      0.060
-
- For major independent code sections, cpu and wall times (sec),
-  as well as % of the time and number of calls for node 0-
-<BEGIN_TIMER mpi_nprocs = 1, omp_nthreads = 12, mpi_rank = 0>
- cpu_time =         2517.2, wall_time =          215.5
-
- routine                        cpu     %       wall     %      number of calls  Gflops    Speedup Efficacity
-                                                                  (-1=no count)
- nonlop(apply)               9045.748 359.4    768.607 356.6           5381      -1.00       11.77       0.98
- vtowfk(ssdiag)              2267.877  90.1    193.028  89.6             -1      -1.00       11.75       0.98
- chebfiwf2                   2267.584  90.1    192.995  89.5             39      -1.00       11.75       0.98
- fourwf%(pot)                1342.612  53.3    118.521  55.0           4680      -1.00       11.33       0.94
- getghc-other                 194.253   7.7     16.145   7.5             -1      -1.00       12.03       1.00
- pawdenpot                     61.189   2.4      5.293   2.5             37      -1.00       11.56       0.96
- vtowfk(contrib)               34.419   1.4      2.948   1.4             37      -1.00       11.68       0.97
- pawmkrho                      31.510   1.3      2.675   1.2             37      -1.00       11.78       0.98
- pawdij/symdij                 28.034   1.1      2.389   1.1             37      -1.00       11.73       0.98
- pawmkrho:symrhoij             26.795   1.1      2.274   1.1             37      -1.00       11.78       0.98
- mkrho/=                       24.890   1.0      2.136   1.0             74      -1.00       11.65       0.97
- fourdp                         8.995   0.4      0.818   0.4            339      -1.00       10.99       0.92
- xc:pot/=fourdp                 6.862   0.3      0.592   0.3             38      -1.00       11.59       0.97
- vtorho:pawmkrhoij              5.553   0.2      0.486   0.2             37      -1.00       11.43       0.95
- pawinit                        3.878   0.2      0.326   0.2              2      -1.00       11.90       0.99
- pspini                         2.884   0.1      0.802   0.4              1      -1.00        3.60       0.30
- vtowfk  (1)                    2.868   0.1      0.255   0.1             37      -1.00       11.26       0.94
- ewald                          2.661   0.1      0.494   0.2              1      -1.00        5.39       0.45
- stress                         2.429   0.1      0.245   0.1              1      -1.00        9.93       0.83
- ewald2 (+vdw_dftd)             2.237   0.1      0.226   0.1              1      -1.00        9.92       0.83
- symrhg(no FFT)                 1.509   0.1      0.127   0.1             37      -1.00       11.92       0.99
- nhatgrid                       1.034   0.0      0.088   0.0              2      -1.00       11.77       0.98
- newkpt(excl. rwwf   )          0.621   0.0      0.052   0.0             -1      -1.00       11.82       0.99
- forces                         0.523   0.0      0.042   0.0              1      -1.00       12.57       1.05
- prep_bandfft_tabs              0.209   0.0      0.015   0.0              2      -1.00       13.68       1.14
- timing timab                   0.191   0.0      0.016   0.0              5      -1.00       11.73       0.98
- setsym                         0.136   0.0      0.010   0.0              1      -1.00       13.12       1.09
- scfcv-scprqt                   0.117   0.0      0.007   0.0             37      -1.00       16.75       1.40
- invars2                        0.072   0.0      0.072   0.0              1      -1.00        1.00       0.08
- abinit(2)                      0.050   0.0      0.050   0.0              1      -1.00        1.00       0.08
- others (105)                   0.000   0.0      0.000   0.0             -1      -1.00        1.01       0.08
-<END_TIMER>
-
- subtotal                   15367.738 610.5   1311.734 608.6                                 11.72       0.98

- For major independent code sections, cpu and wall times (sec),
- as well as % of the total time and number of calls 

-<BEGIN_TIMER mpi_nprocs = 1, omp_nthreads = 12, mpi_rank = world>
- cpu_time =        2517.2, wall_time =         215.5
-
- routine                         cpu     %       wall     %      number of calls Gflops    Speedup Efficacity
-                                                                  (-1=no count)
- nonlop(apply)               9045.748 359.4    768.607 356.6           5381      -1.00       11.77       0.98
- vtowfk(ssdiag)              2267.877  90.1    193.028  89.6             -1      -1.00       11.75       0.98
- chebfiwf2                   2267.584  90.1    192.995  89.5             39      -1.00       11.75       0.98
- fourwf%(pot)                1342.612  53.3    118.521  55.0           4680      -1.00       11.33       0.94
- getghc-other                 194.253   7.7     16.145   7.5             -1      -1.00       12.03       1.00
- pawdenpot                     61.189   2.4      5.293   2.5             37      -1.00       11.56       0.96
- vtowfk(contrib)               34.419   1.4      2.948   1.4             37      -1.00       11.68       0.97
- pawmkrho                      31.510   1.3      2.675   1.2             37      -1.00       11.78       0.98
- pawdij/symdij                 28.034   1.1      2.389   1.1             37      -1.00       11.73       0.98
- pawmkrho:symrhoij             26.795   1.1      2.274   1.1             37      -1.00       11.78       0.98
- mkrho/=                       24.890   1.0      2.136   1.0             74      -1.00       11.65       0.97
- fourdp                         8.995   0.4      0.818   0.4            339      -1.00       10.99       0.92
- xc:pot/=fourdp                 6.862   0.3      0.592   0.3             38      -1.00       11.59       0.97
- vtorho:pawmkrhoij              5.553   0.2      0.486   0.2             37      -1.00       11.43       0.95
- pawinit                        3.878   0.2      0.326   0.2              2      -1.00       11.90       0.99
- pspini                         2.884   0.1      0.802   0.4              1      -1.00        3.60       0.30
- vtowfk  (1)                    2.868   0.1      0.255   0.1             37      -1.00       11.26       0.94
- ewald                          2.661   0.1      0.494   0.2              1      -1.00        5.39       0.45
- stress                         2.429   0.1      0.245   0.1              1      -1.00        9.93       0.83
- ewald2 (+vdw_dftd)             2.237   0.1      0.226   0.1              1      -1.00        9.92       0.83
- symrhg(no FFT)                 1.509   0.1      0.127   0.1             37      -1.00       11.92       0.99
- nhatgrid                       1.034   0.0      0.088   0.0              2      -1.00       11.77       0.98
- newkpt(excl. rwwf   )          0.621   0.0      0.052   0.0             -1      -1.00       11.82       0.99
- forces                         0.523   0.0      0.042   0.0              1      -1.00       12.57       1.05
- prep_bandfft_tabs              0.209   0.0      0.015   0.0              2      -1.00       13.68       1.14
- timing timab                   0.191   0.0      0.016   0.0              5      -1.00       11.73       0.98
- setsym                         0.136   0.0      0.010   0.0              1      -1.00       13.12       1.09
- scfcv-scprqt                   0.117   0.0      0.007   0.0             37      -1.00       16.75       1.40
- invars2                        0.072   0.0      0.072   0.0              1      -1.00        1.00       0.08
- abinit(2)                      0.050   0.0      0.050   0.0              1      -1.00        1.00       0.08
- others (105)                   0.000   0.0      0.000   0.0             -1      -1.00        1.01       0.08
-<END_TIMER>

- subtotal                   15367.738 610.5   1311.734 608.6                                 11.72       0.98

 Partitioning of abinit
- abinit                      2517.237 100.0    215.545 100.0              1                  11.68       0.97
 
- abinit(2)                      0.050   0.0      0.050   0.0              1                   1.00       0.08
- indefo+macroin+invars2m        0.072   0.0      0.072   0.0              1                   1.00       0.08
- abinit(4)                      0.138   0.0      0.155   0.1              1                   0.89       0.07
- driver                      2516.797 100.0    215.326  99.9              1                  11.69       0.97

- subtotal                    2517.237 100.0    215.545 100.0                                 11.68       0.97

 Partitioning of driver
- driver                      2516.797 100.0    215.326  99.9              1                  11.69       0.97
 
- gstateimg                   2516.797 100.0    215.325  99.9              1                  11.69       0.97

- subtotal                    2516.797 100.0    215.326  99.9                                 11.69       0.97

 Partitioning of gstateimg+gstate
- gstateimg                   2516.797 100.0    215.325  99.9              1                  11.69       0.97
 
- gstate->kpgsph                 0.854   0.0      0.072   0.0              2                  11.86       0.99
- gstate(pspini)                 2.884   0.1      0.802   0.4              1                   3.60       0.30
- gstate  (2)                    2.847   0.1      0.246   0.1              1                  11.56       0.96
- gstate(...scfcv)            2510.206  99.7    214.198  99.4              1                  11.72       0.98

- subtotal                    2516.797 100.0    215.325  99.9                                 11.69       0.97

 Partitioning of scfcv_core
- scfcv_core                  2510.202  99.7    214.198  99.4              1                  11.72       0.98
 
- scfcv_core(iniloop, setv       3.175   0.1      0.553   0.3             37                   5.75       0.48
- scfcv_core(loop, PAW)         89.310   3.5      7.694   3.6             37                  11.61       0.97
- scfcv_core(vtorho(f))       2385.926  94.8    203.169  94.3             37                  11.74       0.98
- scfcv_core(mix den - new       6.433   0.3      0.547   0.3             36                  11.76       0.98
- scfcv_core(rhotov)            10.203   0.4      0.913   0.4             36                  11.18       0.93
- scfcv_core(afterscfloop)      14.695   0.6      1.278   0.6              1                  11.50       0.96

- subtotal                    2510.202  99.7    214.198  99.4                                 11.72       0.98

 Partitioning of rhotov
- rhotov                         8.479   0.3      0.739   0.3             36                  11.47       0.96
 
- rhotov(rhotoxc)                6.725   0.3      0.581   0.3             36                  11.57       0.96
- (other)                        1.328   0.1      0.118   0.1             -1                  11.22       0.93

- subtotal                       8.479   0.3      0.739   0.3                                 11.47       0.96

 Partitioning of vtorho
- vtorho                      2385.925  94.8    203.168  94.3             37                  11.74       0.98
 
- vtorho(bef. spin loop)         0.925   0.0      0.067   0.0             37                  13.89       1.16
- vtorho(bef. kpt  loop)         2.232   0.1      0.207   0.1             37                  10.79       0.90
- vtorho(bef. vtowfk)            2.460   0.1      0.207   0.1             37                  11.90       0.99
- vtowfk                      2305.164  91.6    196.230  91.0             37                  11.75       0.98
- vtorho(newocc)                 9.715   0.4      0.835   0.4             37                  11.64       0.97
- vtorho(mkrho 1)               27.595   1.1      2.368   1.1             37                  11.65       0.97
- vtorho(mkrho 2)               37.539   1.5      3.223   1.5             37                  11.65       0.97
- mkinvovl                       1.783   0.1      0.153   0.1              1                  11.68       0.97

- subtotal                    2385.925  94.8    203.168  94.3                                 11.74       0.98

 Partitioning of vtowfk
- vtowfk                      2305.164  91.6    196.230  91.0             37                  11.75       0.98
 
- vtowfk  (1)                    2.868   0.1      0.255   0.1             37                  11.26       0.94
- vtowfk(2)                   2267.877  90.1    193.028  89.6             -1                  11.75       0.98
- prep_nonlop%vtowfk            30.627   1.2      2.618   1.2             37                  11.70       0.97
- vtowfk(3)                      3.792   0.2      0.329   0.2             -1                  11.51       0.96

- subtotal                    2305.164  91.6    196.230  91.0                                 11.75       0.98

 Partitioning of getghc
- getghc                     10075.622 400.3    860.247 399.1           4680                  11.71       0.98
 
- fourwf%getghc               1342.612  53.3    118.521  55.0           4680                  11.33       0.94
- nonlop%getghc               8538.757 339.2    725.581 336.6           4679                  11.77       0.98
- getghc-other                 194.253   7.7     16.145   7.5             -1                  12.03       1.00

- subtotal                   10075.622 400.3    860.247 399.1                                 11.71       0.98

 Partitioning of fourwf (upwards partitioning)
- fourwf                      1357.874  53.9    119.866  55.6          10719                  11.33       0.94
 
- fourwf%getghc               1342.612  53.3    118.521  55.0           4680                  11.33       0.94
- fourwf%prep_four              15.261   0.6      1.345   0.6           6039                  11.35       0.95

- subtotal                    1357.874  53.9    119.866  55.6                                 11.33       0.94

 Partitioning of prep_getghc
- prep_getghc                 1012.749  40.2     86.002  39.9            390                  11.78       0.98
 
- prep_getghc(before if)        81.761   3.2      6.942   3.2            390                  11.78       0.98
- prep_getghc(getghc - 2 )     904.713  35.9     76.683  35.6            390                  11.80       0.98
- (other)                       26.275   1.0      2.377   1.1             -1                  11.06       0.92

- subtotal                    1012.749  40.2     86.002  39.9                                 11.78       0.98

 Partitioning of prep_fourwf
- prep_fourwf                   20.781   0.8      1.790   0.8             37                  11.61       0.97
 
- fourwf%prep_four              15.261   0.6      1.345   0.6           6039                  11.35       0.95
- alltoall%prep_fo               1.283   0.1      0.096   0.0             37                  13.37       1.11

- subtotal                      16.544   0.7      1.441   0.7                                 11.48       0.96

 Partitioning of prep_nonlop
- prep_nonlop                  580.775  23.1     49.305  22.9            740                  11.78       0.98
 
- nonlop%prep_nonl%vtowfk       26.659   1.1      2.284   1.1             37                  11.67       0.97
- nonlop%prep_nonl%forstrn      10.089   0.4      0.847   0.4              1                  11.91       0.99
- prep_nonlop(alltoall)          0.863   0.0      0.064   0.0             38                  13.58       1.13
- (other)                      543.163  21.6     46.110  21.4             -1                  11.78       0.98

- subtotal                     580.775  23.1     49.305  22.9                                 11.78       0.98

 Partitioning of mkrho (upwards partitioning)
- mkrho                         27.594   1.1      2.368   1.1             37                  11.65       0.97
 
- mkrho%vtorho                  27.594   1.1      2.368   1.1             37                  11.65       0.97

- subtotal                      27.594   1.1      2.368   1.1                                 11.65       0.97

 Partitioning of inwffil
- inwffil                        0.621   0.0      0.053   0.0              1                  11.81       0.98
 
- inwffil(call newkpt)           0.621   0.0      0.053   0.0              1                  11.82       0.98

- subtotal                       0.621   0.0      0.053   0.0                                 11.81       0.98

 Partitioning of newkpt
- newkpt                         0.621   0.0      0.052   0.0              1                  11.82       0.99
 
- newkpt(call wfconv)            0.620   0.0      0.052   0.0              1                  11.84       0.99

- subtotal                       0.621   0.0      0.052   0.0                                 11.82       0.99

 Partitioning of newrho
- newrho                         6.433   0.3      0.547   0.3             36                  11.76       0.98
 
- fourdp%newrho                  2.361   0.1      0.184   0.1             72                  12.86       1.07

- subtotal                       2.361   0.1      0.184   0.1                                 12.86       1.07

 Partitioning of  fourdp (upwards partitioning)
- fourdp                         8.995   0.4      0.818   0.4            339                  10.99       0.92
 
- fourdp%(other)                 6.633   0.3      0.635   0.3            267                  10.45       0.87
- fourdp%newrho                  2.361   0.1      0.184   0.1             72                  12.86       1.07

- subtotal                       8.995   0.4      0.818   0.4                                 10.99       0.92

 Partitioning of afterscfloop
- afterscfloop                  14.695   0.6      1.277   0.6              1                  11.50       0.96
 
- afterscfloop(forstr)          14.694   0.6      1.277   0.6              1                  11.51       0.96

- subtotal                      14.695   0.6      1.277   0.6                                 11.50       0.96

 Partitioning of forstr
- forstr                        13.945   0.6      1.212   0.6              1                  11.51       0.96
 
- forstr(forstrnps)             10.707   0.4      0.901   0.4              1                  11.88       0.99
- forstr(forces)                 0.571   0.0      0.048   0.0              1                  11.90       0.99
- forstr(stress)                 2.429   0.1      0.245   0.1              1                   9.93       0.83

- subtotal                      13.945   0.6      1.212   0.6                                 11.51       0.96

 Partitioning of forstrnps
- forstrnps                     10.707   0.4      0.901   0.4              1                  11.88       0.99
 
- forstrnps(nonlop+prep_ba      10.229   0.4      0.860   0.4              1                  11.89       0.99

- subtotal                      10.707   0.4      0.901   0.4                                 11.88       0.99

 Partitioning of outscfcv
- outscfcv                       0.007   0.0      0.007   0.0              1                   0.98       0.08
 

- subtotal                       0.003   0.0      0.003   0.0                                  0.93       0.08

 Partitioning of mkinvovl
- mkinvovl                       1.783   0.1      0.153   0.1              1                  11.68       0.97
 
- mkinvovl(build_ptp)            1.301   0.1      0.111   0.1              1                  11.68       0.97

- subtotal                       1.783   0.1      0.153   0.1                                 11.68       0.97

 Partitioning of chebfiwf2 core engine
- chebfiwf2                   2267.584  90.1    192.995  89.5             39                  11.75       0.98
 
- chebfi2_run                 2266.059  90.0    192.880  89.5             39                  11.75       0.98
- chebfi2_getAX_BX            1012.893  40.2     86.007  39.9            390                  11.78       0.98
- chebfi2_invovl              1177.077  46.8    100.219  46.5            351                  11.75       0.98
- chebfi2_residu                 1.352   0.1      0.106   0.0             39                  12.73       1.06
- chebfi2_RayleighRitz          52.066   2.1      4.600   2.1             39                  11.32       0.94
- chebfi2_RR_q                   1.451   0.1      0.148   0.1             39                   9.82       0.82
- chebfi2_next_p              1193.567  47.4    101.648  47.2            351                  11.74       0.98
- chebfi2_amp_f                  2.971   0.1      0.233   0.1             39                  12.76       1.06

- subtotal                    5708.089 226.8    485.876 225.4                                 11.75       0.98
-
-Synchronisation (=leave_test) and MPI calls 
- communic.MPI                   0.046   0.0      0.001   0.0            334                  56.74       4.73
-
- forstrnps:synchr               0.000   0.0      0.000   0.0              2                  56.89       4.74
- mkrho :MPIrhor                 0.000   0.0      0.000   0.0             37                   0.78       0.07
- subtotal                       0.000   0.0      0.000   0.0                                  3.70       0.31

 Additional information
- timana(1)                      0.068   0.0      0.006   0.0              1                  10.73       0.89
- total timab                    1.431   0.1      0.122   0.1          37940                  11.73       0.98
- fourwf                      1357.874  53.9    119.866  55.6          10719                  11.33       0.94
- newocc                         9.715   0.4      0.834   0.4             37                  11.64       0.97
- nonlop(total)               9082.496 360.8    771.738 358.0           5419                  11.77       0.98

 Additional information about PAW segments
- forces:pawatm2ff               0.284   0.0      0.023   0.0              1                  12.61       1.05
- stress:pawatm2ff               0.191   0.0      0.017   0.0              1                  11.00       0.92
- setvtr:pawatm2ff               0.040   0.0      0.020   0.0              1                   1.97       0.16
- pawinit                        3.878   0.2      0.326   0.2              2                  11.90       0.99
- vtowfk:rhoij                  30.630   1.2      2.618   1.2             37                  11.70       0.97
- vtorho:pawmkrhoij              5.553   0.2      0.486   0.2             37                  11.43       0.95
- pawmkrho                      31.510   1.3      2.675   1.2             37                  11.78       0.98
- scfcv_core:mknhat              1.724   0.1      0.174   0.1             37                   9.92       0.83
- nhatgrid                       1.034   0.0      0.088   0.0              2                  11.77       0.98
- pawdenpot                     61.189   2.4      5.293   2.5             37                  11.56       0.96
- pawdij/symdij                 28.034   1.1      2.389   1.1             37                  11.73       0.98


 Detailed analysis of some time consuming routines 
                                  tcpu    ncalls  tcpu/ncalls    ndata tcpu/ncalls/ndata
                                 (sec)                (msec)              (microsec)
- fourwf%(pot)                1342.612      4680     286.883    128000       2.241
- fourwf%(den)                   0.000         0
- fourdp                         8.995       339      26.532     64000       0.415
- nonlop(apply)               9045.748      5381    1681.053    120497      13.951
- nonlop(forces)                 0.000         0
- nonlop(forstr)                 0.000         0
- projbd                         0.000         0
- xc:pot/=fourdp                 6.862        38     180.575     64000       2.821

================================================================================

 Suggested references for the acknowledgment of ABINIT usage.

 The users of ABINIT have little formal obligations with respect to the ABINIT group
 (those specified in the GNU General Public License, http://www.gnu.org/copyleft/gpl.txt).
 However, it is common practice in the scientific literature,
 to acknowledge the efforts of people that have made the research possible.
 In this spirit, please find below suggested citations of work written by ABINIT developers,
 corresponding to implementations inside of ABINIT that you have used in the present run.
 Note also that it will be of great value to readers of publications presenting these results,
 to read papers enabling them to understand the theoretical formalism and details
 of the ABINIT implementation.
 For information on why they are suggested, see also https://docs.abinit.org/theory/acknowledgments.
-
- [1] Implementation of the Projector Augmented-Wave Method in the ABINIT code.
- M. Torrent, F. Jollet, F. Bottin, G. Zerah, and X. Gonze Comput. Mat. Science 42, 337, (2008).
- Comment : PAW calculations. Strong suggestion to cite this paper.
- DOI and bibtex : see https://docs.abinit.org/theory/bibliography/#torrent2008
-
- [2] Recent developments in the ABINIT software package.
- Computer Phys. Comm. 205, 106 (2016).
- X.Gonze, F.Jollet, F.Abreu Araujo, D.Adams, B.Amadon, T.Applencourt,
- C.Audouze, J.-M.Beuken, J.Bieder, A.Bokhanchuk, E.Bousquet, F.Bruneval
- D.Caliste, M.Cote, F.Dahm, F.Da Pieve, M.Delaveau, M.Di Gennaro,
- B.Dorado, C.Espejo, G.Geneste, L.Genovese, A.Gerossier, M.Giantomassi,
- Y.Gillet, D.R.Hamann, L.He, G.Jomard, J.Laflamme Janssen, S.Le Roux,
- A.Levitt, A.Lherbier, F.Liu, I.Lukacevic, A.Martin, C.Martins,
- M.J.T.Oliveira, S.Ponce, Y.Pouillon, T.Rangel, G.-M.Rignanese,
- A.H.Romero, B.Rousseau, O.Rubel, A.A.Shukri, M.Stankovski, M.Torrent,
- M.J.Van Setten, B.Van Troeye, M.J.Verstraete, D.Waroquier, J.Wiktor,
- B.Xu, A.Zhou, J.W.Zwanziger.
- Comment : the fourth generic paper describing the ABINIT project.
- Note that a version of this paper, that is not formatted for Computer Phys. Comm. 
- is available at https://www.abinit.org/about/ABINIT16.pdf .
- The licence allows the authors to put it on the Web.
- DOI and bibtex : see https://docs.abinit.org/theory/bibliography/#gonze2016
-
- [3] ABINIT : First-principles approach of materials and nanosystem properties.
- Computer Phys. Comm. 180, 2582-2615 (2009).
- X. Gonze, B. Amadon, P.-M. Anglade, J.-M. Beuken, F. Bottin, P. Boulanger, F. Bruneval,
- D. Caliste, R. Caracas, M. Cote, T. Deutsch, L. Genovese, Ph. Ghosez, M. Giantomassi
- S. Goedecker, D.R. Hamann, P. Hermet, F. Jollet, G. Jomard, S. Leroux, M. Mancini, S. Mazevet,
- M.J.T. Oliveira, G. Onida, Y. Pouillon, T. Rangel, G.-M. Rignanese, D. Sangalli, R. Shaltaf,
- M. Torrent, M.J. Verstraete, G. Zerah, J.W. Zwanziger
- Comment : the third generic paper describing the ABINIT project.
- Note that a version of this paper, that is not formatted for Computer Phys. Comm. 
- is available at https://www.abinit.org/about/ABINIT_CPC_v10.pdf .
- The licence allows the authors to put it on the Web.
- DOI and bibtex : see https://docs.abinit.org/theory/bibliography/#gonze2009
-
- [4] A brief introduction to the ABINIT software package.
- Z. Kristallogr. 220, 558-562 (2005).
- X. Gonze, G.-M. Rignanese, M. Verstraete, J.-M. Beuken, Y. Pouillon, R. Caracas, F. Jollet,
- M. Torrent, G. Zerah, M. Mikami, Ph. Ghosez, M. Veithen, J.-Y. Raty, V. Olevano, F. Bruneval,
- L. Reining, R. Godby, G. Onida, D.R. Hamann, and D.C. Allan.
- Comment : the second generic paper describing the ABINIT project. Note that this paper
- should be cited especially if you are using the GW part of ABINIT, as several authors
- of this part are not in the list of authors of the first or third paper.
- The .pdf of the latter paper is available at https://www.abinit.org/about/zfk_0505-06_558-562.pdf.
- Note that it should not redistributed (Copyright by Oldenburg Wissenshaftverlag,
- the licence allows the authors to put it on the Web).
- DOI and bibtex : see https://docs.abinit.org/theory/bibliography/#gonze2005
-
- And optionally:
-
- [5] First-principles computation of material properties : the ABINIT software project. 
- X. Gonze, J.-M. Beuken, R. Caracas, F. Detraux, M. Fuchs, G.-M. Rignanese, L. Sindic,
- M. Verstraete, G. Zerah, F. Jollet, M. Torrent, A. Roy, M. Mikami, Ph. Ghosez, J.-Y. Raty, D.C. Allan.
- Computational Materials Science 25, 478-492 (2002). http://dx.doi.org/10.1016/S0927-0256(02)00325-7
- Comment : the original paper describing the ABINIT project.
- DOI and bibtex : see https://docs.abinit.org/theory/bibliography/#gonze2002
-
- Proc.   0 individual time (sec): cpu=       2517.3  wall=        215.5
 
================================================================================
 
 Calculation completed.
.Delivered   0 WARNINGs and   3 COMMENTs to log file.
+Overall time at end (sec) : cpu=       2517.3  wall=        215.5
