<?xml version="1.0" encoding="UTF-8" ?>
<psml version="1.1" energy_unit="hartree" length_unit="bohr"
 uuid="905d0910-7635-11e7-5773-d4d0ffdb38b2"
 xmlns="http://esl.cecam.org/PSML/ns/1.1">
<provenance record-number="2" creator="psop-1.1" date="2017-07-31">
<annotation source-uuid="37345060-6dab-11e7-6f61-88e9fdbc0020"
 command-line="/Users/javier/Code/Launchpad/trunk-psml/Pseudo/vnl-operator/psop -K -o Al.psml Al.tm2.psml"
 action="inserted-local-potential" action-cont="inserted-nonlocal-projectors" />
</provenance>
<provenance record-number="1" creator="ATM4.2.6" date="21-JUL-17">
<annotation action="semilocal-pseudopotential-generation" />
<input-file name="INP">
<![CDATA[   pg      Aluminum
        tm2     2.60
 n=Al c=ca
       0.0       0.0       0.0       0.0       0.0       0.0
    3    4
    3    0      2.00      0.00
    3    1      1.00      0.00
    3    2      0.00      0.00
    4    3      0.00      0.00
      2.30      2.30      2.30      2.30

#23456789012345678901234567890123456789012345678901234567890

]]>
</input-file>
</provenance>
<pseudo-atom-spec atomic-label="Al" atomic-number="13" z-pseudo="3"
 flavor="Troullier-Martins" relativity="no" spin-dft="no" core-corrections="no">
<annotation pseudo-energy="-1.94425213552" />
<exchange-correlation>
<annotation atom-xc-code="ca" siesta-xc-type="LDA" siesta-xc-authors="CA" />
<libxc-info number-of-functionals="2">
<functional name="XC_LDA_X" type="XC_EXCHANGE" id="1" />
<functional name="XC_LDA_C_PZ" type="XC_CORRELATION" id="9" />
</libxc-info>
</exchange-correlation>
<valence-configuration total-valence-charge="3">
<shell n="3" l="s" occupation="2" />
<shell n="3" l="p" occupation="1" />
</valence-configuration>
</pseudo-atom-spec>
<grid npts="376">
<annotation type="sampled-log-atom"
 recipe="r(i:1..N) = a*(exp(b*(i-1))-1); resampled"
 recipe-cont="a: scale; b: step" scale="0.190673244359E-03"
 step="0.125000000000E-01" delta="0.500000000000E-02" rmax="20" />
<grid-data>
  0.000000000000E+00  5.044007834488E-03  1.009041301318E-02  1.514690515322E-02
  2.025570822402E-02  2.541479473242E-02  3.069541677981E-02  3.614521542803E-02
  4.150118740635E-02  4.705239415747E-02  5.267773281649E-02  5.823795161910E-02
  6.358079738490E-02  6.941220506610E-02  7.483316614244E-02  8.067633416918E-02
  8.589180805662E-02  9.144365111044E-02  9.735355727800E-02  1.023547569220E-01
  1.076123735550E-01  1.131395539571E-01  1.189501189583E-01  1.250585979976E-01
  1.314802654545E-01  1.365116749798E-01  1.417353447112E-01  1.471586212952E-01
  1.527891321081E-01  1.586347959838E-01  1.647038343505E-01  1.710047827935E-01
  1.775465030601E-01  1.843381955223E-01  1.913894121172E-01  1.987100697799E-01
  2.037452660620E-01  2.089079289448E-01  2.142012852607E-01  2.196286435297E-01
  2.251933960275E-01  2.308990209054E-01  2.367490843647E-01  2.427472428856E-01
  2.488972455124E-01  2.552029361969E-01  2.616682562011E-01  2.682972465604E-01
  2.750940506096E-01  2.820629165725E-01  2.892082002172E-01  2.965343675785E-01
  3.040459977495E-01  3.117477857437E-01  3.196445454292E-01  3.277412125379E-01
  3.360428477502E-01  3.445546398586E-01  3.532819090100E-01  3.622301100319E-01
  3.714048358410E-01  3.808118209399E-01  3.904569450003E-01  4.003462365387E-01
  4.053843706486E-01  4.104858766843E-01  4.156515517665E-01  4.208822030423E-01
  4.261786478118E-01  4.315417136551E-01  4.369722385623E-01  4.424710710638E-01
  4.480390703634E-01  4.536771064725E-01  4.593860603455E-01  4.651668240182E-01
  4.710203007466E-01  4.769474051483E-01  4.829490633456E-01  4.890262131096E-01
  4.951798040075E-01  5.014107975503E-01  5.077201673434E-01  5.141088992387E-01
  5.205779914885E-01  5.271284549017E-01  5.337613130016E-01  5.404776021856E-01
  5.472783718876E-01  5.541646847418E-01  5.611376167486E-01  5.681982574426E-01
  5.753477100635E-01  5.825870917277E-01  5.899175336034E-01  5.973401810869E-01
  6.048561939822E-01  6.124667466814E-01  6.201730283489E-01  6.279762431070E-01
  6.358776102238E-01  6.438783643039E-01  6.519797554815E-01  6.601830496155E-01
  6.684895284872E-01  6.769004900008E-01  6.854172483863E-01  6.940411344044E-01
  7.027734955549E-01  7.116156962869E-01  7.205691182124E-01  7.296351603217E-01
  7.388152392023E-01  7.481107892602E-01  7.575232629441E-01  7.670541309722E-01
  7.767048825618E-01  7.864770256626E-01  7.963720871919E-01  8.063916132731E-01
  8.165371694776E-01  8.268103410692E-01  8.372127332518E-01  8.477459714204E-01
  8.584117014148E-01  8.692115897771E-01  8.801473240119E-01  8.912206128497E-01
  9.024331865147E-01  9.137867969941E-01  9.252832183127E-01  9.369242468098E-01
  9.487117014197E-01  9.606474239562E-01  9.727332794002E-01  9.849711561913E-01
  9.973629665225E-01  1.009910646639E+00  1.022616157143E+00  1.035481483294E+00
  1.048508635327E+00  1.061699648761E+00  1.075056584718E+00  1.088581530246E+00
  1.102276598646E+00  1.116143929801E+00  1.130185690509E+00  1.144404074823E+00
  1.158801304395E+00  1.173379628822E+00  1.188141325996E+00  1.203088702462E+00
  1.218224093780E+00  1.233549864883E+00  1.249068410456E+00  1.264782155302E+00
  1.280693554726E+00  1.296805094916E+00  1.313119293335E+00  1.329638699107E+00
  1.346365893424E+00  1.363303489945E+00  1.380454135203E+00  1.397820509020E+00
  1.415405324930E+00  1.433211330594E+00  1.451241308238E+00  1.469498075081E+00
  1.487984483782E+00  1.506703422878E+00  1.525657817243E+00  1.544850628539E+00
  1.564284855682E+00  1.583963535309E+00  1.603889742254E+00  1.624066590028E+00
  1.644497231304E+00  1.665184858410E+00  1.686132703832E+00  1.707344040713E+00
  1.728822183366E+00  1.750570487796E+00  1.772592352220E+00  1.794891217597E+00
  1.817470568173E+00  1.840333932015E+00  1.863484881572E+00  1.886927034226E+00
  1.910664052860E+00  1.934699646434E+00  1.959037570556E+00  1.983681628078E+00
  2.008635669683E+00  2.033903594491E+00  2.059489350667E+00  2.085396936037E+00
  2.111630398714E+00  2.138193837730E+00  2.165091403677E+00  2.192327299353E+00
  2.219905780423E+00  2.247831156081E+00  2.276107789724E+00  2.304740099632E+00
  2.333732559663E+00  2.363089699948E+00  2.392816107599E+00  2.422916427429E+00
  2.453395362672E+00  2.484257675726E+00  2.515508188888E+00  2.547151785117E+00
  2.579193408786E+00  2.611638066467E+00  2.644490827702E+00  2.677756825802E+00
  2.711441258647E+00  2.745549389498E+00  2.780086547821E+00  2.815058130115E+00
  2.850469600763E+00  2.886326492879E+00  2.922634409174E+00  2.959399022835E+00
  2.996626078407E+00  3.034321392694E+00  3.072490855665E+00  3.111140431376E+00
  3.150276158903E+00  3.189904153281E+00  3.230030606467E+00  3.270661788299E+00
  3.311804047483E+00  3.353463812581E+00  3.395647593015E+00  3.438361980086E+00
  3.481613648006E+00  3.525409354935E+00  3.569755944041E+00  3.614660344569E+00
  3.660129572924E+00  3.706170733763E+00  3.752791021113E+00  3.799997719489E+00
  3.847798205032E+00  3.896199946666E+00  3.945210507262E+00  3.994837544820E+00
  4.045088813664E+00  4.095972165658E+00  4.147495551430E+00  4.199667021613E+00
  4.252494728105E+00  4.305986925344E+00  4.360151971593E+00  4.414998330252E+00
  4.470534571175E+00  4.526769372013E+00  4.583711519569E+00  4.641369911168E+00
  4.699753556052E+00  4.758871576784E+00  4.818733210675E+00  4.879347811227E+00
  4.940724849594E+00  5.002873916065E+00  5.065804721556E+00  5.129527099135E+00
  5.194051005551E+00  5.259386522799E+00  5.325543859683E+00  5.392533353424E+00
  5.460365471265E+00  5.529050812114E+00  5.598600108194E+00  5.669024226725E+00
  5.740334171617E+00  5.812541085196E+00  5.885656249938E+00  5.959691090237E+00
  6.034657174187E+00  6.110566215391E+00  6.187430074791E+00  6.265260762522E+00
  6.344070439787E+00  6.423871420759E+00  6.504676174502E+00  6.586497326925E+00
  6.669347662748E+00  6.753240127506E+00  6.838187829566E+00  6.924204042180E+00
  7.011302205557E+00  7.099495928960E+00  7.188798992840E+00  7.279225350981E+00
  7.370789132685E+00  7.463504644981E+00  7.557386374856E+00  7.652448991520E+00
  7.748707348701E+00  7.846176486963E+00  7.944871636058E+00  8.044808217303E+00
  8.146001845992E+00  8.248468333836E+00  8.352223691432E+00  8.457284130765E+00
  8.563666067744E+00  8.671386124761E+00  8.780461133296E+00  8.890908136539E+00
  9.002744392061E+00  9.115987374504E+00  9.230654778313E+00  9.346764520504E+00
  9.464334743462E+00  9.583383817771E+00  9.703930345092E+00  9.825993161066E+00
  9.949591338255E+00  1.007474418913E+01  1.020147126907E+01  1.032979237944E+01
  1.045972757069E+01  1.059129714544E+01  1.072452166171E+01  1.085942193610E+01
  1.099601904706E+01  1.113433433815E+01  1.127438942144E+01  1.141620618080E+01
  1.155980677540E+01  1.170521364311E+01  1.185244950407E+01  1.200153736417E+01
  1.215250051869E+01  1.230536255594E+01  1.246014736091E+01  1.261687911906E+01
  1.277558232002E+01  1.293628176151E+01  1.309900255314E+01  1.326377012036E+01
  1.343061020844E+01  1.359954888648E+01  1.377061255150E+01  1.394382793254E+01
  1.411922209485E+01  1.429682244414E+01  1.447665673081E+01  1.465875305434E+01
  1.484313986766E+01  1.502984598157E+01  1.521890056928E+01  1.541033317097E+01
  1.560417369836E+01  1.580045243943E+01  1.599920006313E+01  1.620044762419E+01
  1.640422656794E+01  1.661056873526E+01  1.681950636754E+01  1.703107211169E+01
  1.724529902531E+01  1.746222058178E+01  1.768187067553E+01  1.790428362735E+01
  1.812949418970E+01  1.835753755219E+01  1.858844934707E+01  1.882226565477E+01
  1.905902300957E+01  1.929875840528E+01  1.954150930105E+01  1.978731362720E+01
</grid-data>
</grid>
<valence-charge total-charge="3">
<radfunc>
<data>
  1.099943775923E-01  1.099977505860E-01  1.100078760484E-01  1.100247946954E-01
  1.100487740177E-01  1.100800134848E-01  1.101192995094E-01  1.101676000578E-01
  1.102227460882E-01  1.102879352717E-01  1.103623379894E-01  1.104441343704E-01
  1.105304668424E-01  1.106333472069E-01  1.107370893597E-01  1.108576576486E-01
  1.109729410441E-01  1.111036090438E-01  1.112517159666E-01  1.113843126275E-01
  1.115308893687E-01  1.116929218279E-01  1.118720418854E-01  1.120700543174E-01
  1.122889552467E-01  1.124681586319E-01  1.126613658323E-01  1.128696737413E-01
  1.130942656171E-01  1.133364179517E-01  1.135975078962E-01  1.138790212891E-01
  1.141825613374E-01  1.145098580048E-01  1.148627781670E-01  1.152433365972E-01
  1.155134637095E-01  1.157975237984E-01  1.160962391371E-01  1.164103697954E-01
  1.167407156484E-01  1.170881184943E-01  1.174534642860E-01  1.178376854841E-01
  1.182417635374E-01  1.186667314968E-01  1.191136767707E-01  1.195837440282E-01
  1.200781382592E-01  1.205981279965E-01  1.211450487107E-01  1.217203063840E-01
  1.223253812720E-01  1.229618318615E-01  1.236312990315E-01  1.243355104269E-01
  1.250762850505E-01  1.258555380809E-01  1.266752859228E-01  1.275376514928E-01
  1.284448697450E-01  1.293992934370E-01  1.304033991344E-01  1.314597934486E-01
  1.320084505485E-01  1.325712194991E-01  1.331484656142E-01  1.337405635837E-01
  1.343478976917E-01  1.349708620373E-01  1.356098607566E-01  1.362653082467E-01
  1.369376293909E-01  1.376272597834E-01  1.383346459554E-01  1.390602455995E-01
  1.398045277931E-01  1.405679732198E-01  1.413510743875E-01  1.421543358425E-01
  1.429782743781E-01  1.438234192375E-01  1.446903123080E-01  1.455795083062E-01
  1.464915749522E-01  1.474270931300E-01  1.483866570338E-01  1.493708742957E-01
  1.503803660943E-01  1.514157672388E-01  1.524777262289E-01  1.535669052830E-01
  1.546839803345E-01  1.558296409893E-01  1.570045904414E-01  1.582095453408E-01
  1.594452356084E-01  1.607124041915E-01  1.620118067535E-01  1.633442112900E-01
  1.647103976635E-01  1.661111570484E-01  1.675472912756E-01  1.690196120669E-01
  1.705289401481E-01  1.720761042279E-01  1.736619398292E-01  1.752872879588E-01
  1.769529935981E-01  1.786599040006E-01  1.804088667742E-01  1.822007277312E-01
  1.840363284831E-01  1.859165037575E-01  1.878420784128E-01  1.898138641235E-01
  1.918326557085E-01  1.938992270721E-01  1.960143267260E-01  1.981786728585E-01
  2.003929479153E-01  2.026577926549E-01  2.049737996391E-01  2.073415061190E-01
  2.097613862735E-01  2.122338427585E-01  2.147591975222E-01  2.173376818425E-01
  2.199694255434E-01  2.226544453460E-01  2.253926323129E-01  2.281837383469E-01
  2.310273617072E-01  2.339229315127E-01  2.368696912066E-01  2.398666809637E-01
  2.429127190349E-01  2.460063820284E-01  2.491459841490E-01  2.523295554257E-01
  2.555548189841E-01  2.588191674372E-01  2.621196384972E-01  2.654528899400E-01
  2.688151740878E-01  2.722023120098E-01  2.756096676884E-01  2.790321224362E-01
  2.824640499062E-01  2.858992920834E-01  2.893311367083E-01  2.927522966363E-01
  2.961548917015E-01  2.995304337097E-01  3.028698152482E-01  3.061633030538E-01
  3.094005367329E-01  3.125705336690E-01  3.156617009869E-01  3.186618554604E-01
  3.215582522481E-01  3.243376233247E-01  3.269862264231E-01  3.294899052280E-01
  3.318341614493E-01  3.340042392544E-01  3.359852223509E-01  3.377621437778E-01
  3.393201081895E-01  3.406444261011E-01  3.417207592054E-01  3.425352754820E-01
  3.430748123995E-01  3.433270460788E-01  3.432806638429E-01  3.429255371528E-01
  3.422528915292E-01  3.412554697088E-01  3.399276840073E-01  3.382657536711E-01
  3.362678229293E-01  3.339340555118E-01  3.312667016135E-01  3.282701336457E-01
  3.249508476584E-01  3.213174280129E-01  3.173804737504E-01  3.131524861054E-01
  3.086477177462E-01  3.038819855501E-01  2.988724500222E-01  2.936373657959E-01
  2.881958090008E-01  2.825673886084E-01  2.767719501619E-01  2.708292815516E-01
  2.647588317214E-01  2.585794543892E-01  2.523091900678E-01  2.459651008982E-01
  2.395631740765E-01  2.331183109706E-01  2.266444203630E-01  2.201546252167E-01
  2.136615127914E-01  2.071772273062E-01  2.007133985634E-01  1.942811606230E-01
  1.878911270468E-01  1.815533767019E-01  1.752774434495E-01  1.690723073677E-01
  1.629463887519E-01  1.569075444672E-01  1.509630666162E-01  1.451196834418E-01
  1.393835623737E-01  1.337603151204E-01  1.282550065927E-01  1.228721704525E-01
  1.176158137179E-01  1.124894111746E-01  1.074959381206E-01  1.026378763415E-01
  9.791723491793E-02  9.333556710237E-02  8.889398901756E-02  8.459319885116E-02
  8.043349664296E-02  7.641480456134E-02  7.253668756871E-02  6.879837437447E-02
  6.519877857296E-02  6.173651986337E-02  5.840994525455E-02  5.521715015909E-02
  5.215599928650E-02  4.922414725024E-02  4.641905880921E-02  4.373802867051E-02
  4.117820078639E-02  3.873658708479E-02  3.641008557952E-02  3.419549781246E-02
  3.208954558652E-02  3.008888695475E-02  2.819013143658E-02  2.638985443881E-02
  2.468461086394E-02  2.307094789467E-02  2.154541694785E-02  2.010458479682E-02
  1.874504386496E-02  1.746342169819E-02  1.625638962787E-02  1.512067063815E-02
  1.405304645834E-02  1.305036389927E-02  1.210954045888E-02  1.122756922299E-02
  1.040152308955E-02  9.628558346321E-03  8.905917633305E-03  8.230932322342E-03
  7.601024347164E-03  7.013707517653E-03  6.466588352428E-03  5.957366463917E-03
  5.483834529951E-03  5.043877885531E-03  4.635473767926E-03  4.256690247524E-03
  3.905684876009E-03  3.580703082480E-03  3.280076346969E-03  3.002220179664E-03
  2.745631932806E-03  2.508888470902E-03  2.290643723459E-03  2.089626143004E-03
  1.904636089658E-03  1.734543162068E-03  1.578283492962E-03  1.434857026154E-03
  1.303324790321E-03  1.182806183478E-03  1.072476280629E-03  9.715631757904E-04
  8.793453681990E-04  7.951492013570E-04  7.183463623216E-04  6.483514475642E-04
  5.846196006681E-04  5.266442261509E-04  4.739547827961E-04  4.261146590389E-04
  3.827191321862E-04  3.433934125560E-04  3.077907729919E-04  2.755907636501E-04
  2.464975114568E-04  2.202381031984E-04  1.965610508282E-04  1.752348372504E-04
  1.560465405675E-04  1.388005345538E-04  1.233172629339E-04  1.094320849036E-04
  9.699418922612E-05  8.586557416073E-05  7.592009043870E-05  6.704254448129E-05
  5.912785905903E-05  5.208028861380E-05  4.581268650507E-05  4.024582149424E-05
  3.530774084602E-05  3.093317749907E-05  2.706299883893E-05  2.364369469260E-05
  2.062690225379E-05  1.796896574043E-05  1.563052867960E-05  1.357615680881E-05
  1.177398967611E-05  1.019541911333E-05  8.814792847041E-06  7.609141599883E-06
  6.557928120327E-06  5.642816661477E-06  4.847461509326E-06  4.157313237458E-06
  3.559441438818E-06  3.042372755653E-06  2.595943096277E-06  2.211162991831E-06
  1.880095107915E-06  1.595742984871E-06  1.351950136745E-06  1.143308692624E-06
  9.650768152438E-07  8.131041806274E-07  6.837648490376E-07  5.738969019404E-07
  4.807482619178E-07  4.019281527101E-07  3.353636948268E-07  2.792611685220E-07
  2.320715104328E-07  1.924596428814E-07  1.592772657958E-07  1.315387704499E-07
  1.083999618092E-07  8.913930224068E-08  7.314141374284E-08  5.988259872260E-08
  4.891816073874E-08  3.987132658726E-08  3.242358967857E-08  2.630631189716E-08
  2.129343709501E-08  1.719518410512E-08  1.385260072694E-08  1.113287258776E-08
  8.925292182157E-09  7.137803792964E-09  5.694049460710E-09  4.530849753149E-09
  3.596060849246E-09  2.846756450371E-09  2.247689320918E-09  1.769992895110E-09
  1.390088418745E-09  1.088767574200E-09  8.504245120324E-10  6.624147285388E-10
</data>
</radfunc>
</valence-charge>
<semilocal-potentials set="non_relativistic">
<slps n="3" l="s" rc="2.27610778972" flavor="Troullier-Martins">
<radfunc>
<data>
 -2.501333640243E-01 -2.501306185688E-01 -2.501223841106E-01 -2.501086491953E-01
 -2.500892338172E-01 -2.500640307448E-01 -2.500324814877E-01 -2.499939151100E-01
 -2.499501822445E-01 -2.498988962666E-01 -2.498409062185E-01 -2.497778227734E-01
 -2.497120007264E-01 -2.496345801600E-01 -2.495576309925E-01 -2.494696127710E-01
 -2.493868701478E-01 -2.492947589379E-01 -2.491925017413E-01 -2.491028862717E-01
 -2.490059445660E-01 -2.489013704967E-01 -2.487889278269E-01 -2.486684798675E-01
 -2.485400270863E-01 -2.484385371205E-01 -2.483328085100E-01 -2.482231002035E-01
 -2.481097853309E-01 -2.479933749635E-01 -2.478745460432E-01 -2.477541741559E-01
 -2.476333719318E-01 -2.475135339724E-01 -2.473963893406E-01 -2.472840628042E-01
 -2.472131134450E-01 -2.471463460844E-01 -2.470847814925E-01 -2.470295748930E-01
 -2.469820310539E-01 -2.469436209415E-01 -2.469160000904E-01 -2.469010288543E-01
 -2.469007947162E-01 -2.469176368540E-01 -2.469541731711E-01 -2.470133300209E-01
 -2.470983748713E-01 -2.472129521767E-01 -2.473611227405E-01 -2.475474068780E-01
 -2.477768317065E-01 -2.480549829136E-01 -2.483880613772E-01 -2.487829450308E-01
 -2.492472563927E-01 -2.497894361946E-01 -2.504188235658E-01 -2.511457432459E-01
 -2.519816003097E-01 -2.529389828954E-01 -2.540317734309E-01 -2.552752688419E-01
 -2.559587296489E-01 -2.566863102103E-01 -2.574603798285E-01 -2.582834223177E-01
 -2.591580409321E-01 -2.600869634614E-01 -2.610730474957E-01 -2.621192858615E-01
 -2.632288122275E-01 -2.644049068821E-01 -2.656510026812E-01 -2.669706911636E-01
 -2.683677288328E-01 -2.698460436016E-01 -2.714097413937E-01 -2.730631128976E-01
 -2.748106404646E-01 -2.766570051429E-01 -2.786070938357E-01 -2.806660065721E-01
 -2.828390638756E-01 -2.851318142126E-01 -2.875500415022E-01 -2.900997726642E-01
 -2.927872851798E-01 -2.956191146364E-01 -2.986020622235E-01 -3.017432021423E-01
 -3.050498888903E-01 -3.085297643711E-01 -3.121907647819E-01 -3.160411272193E-01
 -3.200893959420E-01 -3.243444282195E-01 -3.288153996908E-01 -3.335118091482E-01
 -3.384434826535E-01 -3.436205768848E-01 -3.490535816017E-01 -3.547533211090E-01
 -3.607309545844E-01 -3.669979751280E-01 -3.735662073747E-01 -3.804478035028E-01
 -3.876552374524E-01 -3.952012971587E-01 -4.030990745842E-01 -4.113619533227E-01
 -4.200035935295E-01 -4.290379139132E-01 -4.384790705116E-01 -4.483414319506E-01
 -4.586395508718E-01 -4.693881311924E-01 -4.806019908443E-01 -4.922960196215E-01
 -5.044851317463E-01 -5.171842127497E-01 -5.304080602440E-01 -5.441713181542E-01
 -5.584884039620E-01 -5.733734285072E-01 -5.888401078869E-01 -6.049016669908E-01
 -6.215707342151E-01 -6.388592269066E-01 -6.567782271052E-01 -6.753378471774E-01
 -6.945470849666E-01 -7.144136681311E-01 -7.349438873963E-01 -7.561424185171E-01
 -7.780121328343E-01 -8.005538964076E-01 -8.237663578334E-01 -8.476457249946E-01
 -8.721855311602E-01 -8.973763910366E-01 -9.232057475987E-01 -9.496576107687E-01
 -9.767122892934E-01 -1.004346117479E+00 -1.032531178788E+00 -1.061235028678E+00
 -1.090420419485E+00 -1.120045030592E+00 -1.150061207610E+00 -1.180415714822E+00
 -1.211049505660E+00 -1.241897516593E+00 -1.272888490328E+00 -1.303944834892E+00
 -1.334982525696E+00 -1.365911058298E+00 -1.396633460136E+00 -1.427046369998E+00
 -1.457040194461E+00 -1.486499350865E+00 -1.515302606672E+00 -1.543323525114E+00
 -1.570431026994E+00 -1.596490078207E+00 -1.621362511997E+00 -1.644907994178E+00
 -1.666985138347E+00 -1.687452776648E+00 -1.706171389663E+00 -1.723004696666E+00
 -1.737821404575E+00 -1.750497110595E+00 -1.760916349570E+00 -1.768974772619E+00
 -1.774581438528E+00 -1.777661193737E+00 -1.778157110481E+00 -1.776032945814E+00
 -1.771275576760E+00 -1.763897358728E+00 -1.753938345524E+00 -1.741468299718E+00
 -1.726588411578E+00 -1.709432633121E+00 -1.690168520614E+00 -1.668997463648E+00
 -1.646154161093E+00 -1.621905182867E+00 -1.596546430606E+00 -1.570399278526E+00
 -1.543805136738E+00 -1.517118131175E+00 -1.490695535529E+00 -1.464885519445E+00
 -1.440011692405E+00 -1.416353823365E+00 -1.394124002253E+00 -1.373437381951E+00
 -1.354276500095E+00 -1.336448031392E+00 -1.319530664087E+00 -1.302973261611E+00
 -1.286640491923E+00 -1.270527516349E+00 -1.254629778225E+00 -1.238942959790E+00
 -1.223462962798E+00 -1.208185890619E+00 -1.193108031774E+00 -1.178225844794E+00
 -1.163535944334E+00 -1.149035088448E+00 -1.134720166941E+00 -1.120588190729E+00
 -1.106636282123E+00 -1.092861665971E+00 -1.079236513343E+00 -1.065793654262E+00
 -1.052527421174E+00 -1.039433081094E+00 -1.026506611261E+00 -1.013744528205E+00
 -1.001143757950E+00 -9.887015377958E-01 -9.764153422485E-01 -9.642828273494E-01
 -9.523017889759E-01 -9.404701317052E-01 -9.287858456374E-01 -9.172469891928E-01
 -9.058516763750E-01 -8.945980673585E-01 -8.834843615449E-01 -8.725087924393E-01
 -8.616696238690E-01 -8.509651471840E-01 -8.403936791754E-01 -8.299535605149E-01
 -8.196431545725E-01 -8.094608465066E-01 -7.994050425508E-01 -7.894741694409E-01
 -7.796666739428E-01 -7.699810224526E-01 -7.604157006479E-01 -7.509692131766E-01
 -7.416400833710E-01 -7.324268529826E-01 -7.233280819301E-01 -7.143423480579E-01
 -7.054682469035E-01 -6.967043914702E-01 -6.880494120056E-01 -6.795019557843E-01
 -6.710606868941E-01 -6.627242860257E-01 -6.544914502657E-01 -6.463608928921E-01
 -6.383313431726E-01 -6.304015461657E-01 -6.225702625245E-01 -6.148362683022E-01
 -6.071983547613E-01 -5.996553281840E-01 -5.922060096859E-01 -5.848492350311E-01
 -5.775838544507E-01 -5.704087324625E-01 -5.633227476937E-01 -5.563247927053E-01
 -5.494137738192E-01 -5.425886109469E-01 -5.358482374209E-01 -5.291915998273E-01
 -5.226176578418E-01 -5.161253840666E-01 -5.097137638698E-01 -5.033817952267E-01
 -4.971284885631E-01 -4.909528666008E-01 -4.848539642044E-01 -4.788308282307E-01
 -4.728825173796E-01 -4.670081020466E-01 -4.612066641780E-01 -4.554772971267E-01
 -4.498191055111E-01 -4.442312050746E-01 -4.387127225475E-01 -4.332627955105E-01
 -4.278805722598E-01 -4.225652116740E-01 -4.173158830826E-01 -4.121317661358E-01
 -4.070120506767E-01 -4.019559366145E-01 -3.969626337991E-01 -3.920313618979E-01
 -3.871613502739E-01 -3.823518378645E-01 -3.776020730636E-01 -3.729113136032E-01
 -3.682788264375E-01 -3.637038876289E-01 -3.591857822340E-01 -3.547238041923E-01
 -3.503172562158E-01 -3.459654496798E-01 -3.416677045154E-01 -3.374233491032E-01
 -3.332317201681E-01 -3.290921626757E-01 -3.250040297302E-01 -3.209666824727E-01
 -3.169794899819E-01 -3.130418291749E-01 -3.091530847104E-01 -3.053126488920E-01
 -3.015199215736E-01 -2.977743100652E-01 -2.940752290404E-01 -2.904221004451E-01
 -2.868143534070E-01 -2.832514241461E-01 -2.797327558871E-01 -2.762577987717E-01
 -2.728260097733E-01 -2.694368526118E-01 -2.660897976697E-01 -2.627843219095E-01
 -2.595199087916E-01 -2.562960481943E-01 -2.531122363330E-01 -2.499679756825E-01
 -2.468627748985E-01 -2.437961487410E-01 -2.407676179987E-01 -2.377767094137E-01
 -2.348229556079E-01 -2.319058950096E-01 -2.290250717816E-01 -2.261800357498E-01
 -2.233703423330E-01 -2.205955524732E-01 -2.178552325672E-01 -2.151489543987E-01
 -2.124762950711E-01 -2.098368369421E-01 -2.072301675576E-01 -2.046558795880E-01
 -2.021135707639E-01 -1.996028438135E-01 -1.971233064007E-01 -1.946745710632E-01
 -1.922562551528E-01 -1.898679807746E-01 -1.875093747288E-01 -1.851800684519E-01
 -1.828796979592E-01 -1.806079037878E-01 -1.783643309408E-01 -1.761486288312E-01
 -1.739604512277E-01 -1.717994562004E-01 -1.696653060669E-01 -1.675576673405E-01
 -1.654762106769E-01 -1.634206108238E-01 -1.613905465693E-01 -1.593857006922E-01
 -1.574057599119E-01 -1.554504148401E-01 -1.535193599319E-01 -1.516122934382E-01
</data>
</radfunc>
</slps>
<slps n="3" l="p" rc="2.27610778972" flavor="Troullier-Martins">
<radfunc>
<data>
 -1.779102116794E+00 -1.779099370817E+00 -1.779091128594E+00 -1.779077359949E+00
 -1.779057852287E+00 -1.779032450774E+00 -1.779000526366E+00 -1.778961307055E+00
 -1.778916570320E+00 -1.778863742502E+00 -1.778803522759E+00 -1.778737410319E+00
 -1.778667735435E+00 -1.778584844640E+00 -1.778501412453E+00 -1.778404640886E+00
 -1.778312304457E+00 -1.778207873777E+00 -1.778089798206E+00 -1.777984350935E+00
 -1.777868074549E+00 -1.777739889204E+00 -1.777598614454E+00 -1.777442961470E+00
 -1.777271525034E+00 -1.777131674498E+00 -1.776981394069E+00 -1.776819945937E+00
 -1.776646546588E+00 -1.776460365072E+00 -1.776260521404E+00 -1.776046085149E+00
 -1.775816074265E+00 -1.775569454258E+00 -1.775305137730E+00 -1.775021984431E+00
 -1.774822163935E+00 -1.774613076650E+00 -1.774394346836E+00 -1.774165589323E+00
 -1.773926409965E+00 -1.773676406200E+00 -1.773415167723E+00 -1.773142277301E+00
 -1.772857311718E+00 -1.772559842892E+00 -1.772249439158E+00 -1.771925666748E+00
 -1.771588091479E+00 -1.771236280666E+00 -1.770869805285E+00 -1.770488242404E+00
 -1.770091177897E+00 -1.769678209475E+00 -1.769248950038E+00 -1.768803031393E+00
 -1.768340108330E+00 -1.767859863107E+00 -1.767362010333E+00 -1.766846302295E+00
 -1.766312534718E+00 -1.765760552987E+00 -1.765190258825E+00 -1.764601617429E+00
 -1.764300424858E+00 -1.763994665063E+00 -1.763684354997E+00 -1.763369517082E+00
 -1.763050179476E+00 -1.762726376357E+00 -1.762398148200E+00 -1.762065542066E+00
 -1.761728611893E+00 -1.761387418784E+00 -1.761042031308E+00 -1.760692525791E+00
 -1.760338986612E+00 -1.759981506499E+00 -1.759620186818E+00 -1.759255137862E+00
 -1.758886479130E+00 -1.758514339602E+00 -1.758138858003E+00 -1.757760183053E+00
 -1.757378473705E+00 -1.756993899365E+00 -1.756606640093E+00 -1.756216886778E+00
 -1.755824841290E+00 -1.755430716598E+00 -1.755034736858E+00 -1.754637137453E+00
 -1.754238165005E+00 -1.753838077318E+00 -1.753437143283E+00 -1.753035642716E+00
 -1.752633866126E+00 -1.752232114413E+00 -1.751830698486E+00 -1.751429938783E+00
 -1.751030164705E+00 -1.750631713931E+00 -1.750234931620E+00 -1.749840169491E+00
 -1.749447784754E+00 -1.749058138898E+00 -1.748671596312E+00 -1.748288522726E+00
 -1.747909283474E+00 -1.747534241532E+00 -1.747163755351E+00 -1.746798176444E+00
 -1.746437846715E+00 -1.746083095520E+00 -1.745734236430E+00 -1.745391563684E+00
 -1.745055348300E+00 -1.744725833837E+00 -1.744403231777E+00 -1.744087716497E+00
 -1.743779419820E+00 -1.743478425113E+00 -1.743184760906E+00 -1.742898394003E+00
 -1.742619222069E+00 -1.742347065652E+00 -1.742081659628E+00 -1.741822644021E+00
 -1.741569554197E+00 -1.741321810387E+00 -1.741078706510E+00 -1.740839398297E+00
 -1.740602890660E+00 -1.740368024308E+00 -1.740133461582E+00 -1.739897671491E+00
 -1.739658913945E+00 -1.739415223164E+00 -1.739164390272E+00 -1.738903945069E+00
 -1.738631136990E+00 -1.738342915281E+00 -1.738035908394E+00 -1.737706402659E+00
 -1.737350320268E+00 -1.736963196631E+00 -1.736540157193E+00 -1.736075893781E+00
 -1.735564640618E+00 -1.735000150111E+00 -1.734375668594E+00 -1.733683912184E+00
 -1.732917042977E+00 -1.732066645819E+00 -1.731123705928E+00 -1.730078587697E+00
 -1.728921015009E+00 -1.727640053496E+00 -1.726224095175E+00 -1.724660845977E+00
 -1.722937316725E+00 -1.721039818188E+00 -1.718953960900E+00 -1.716664660488E+00
 -1.714156149349E+00 -1.711411995557E+00 -1.708415129978E+00 -1.705147882626E+00
 -1.701592029389E+00 -1.697728850281E+00 -1.693539200495E+00 -1.689003595519E+00
 -1.684102311689E+00 -1.678815503523E+00 -1.673123339223E+00 -1.667006155702E+00
 -1.660444634434E+00 -1.653419999374E+00 -1.645914238014E+00 -1.637910346500E+00
 -1.629392599451E+00 -1.620346844825E+00 -1.610760823730E+00 -1.600624514603E+00
 -1.589930500497E+00 -1.578674357501E+00 -1.566855061350E+00 -1.554475408197E+00
 -1.541542444208E+00 -1.528067897073E+00 -1.514068600711E+00 -1.499566902279E+00
 -1.484591038036E+00 -1.469175461659E+00 -1.453361105002E+00 -1.437195547185E+00
 -1.420733062877E+00 -1.404034514835E+00 -1.387167048739E+00 -1.370203540156E+00
 -1.353221733620E+00 -1.336303002264E+00 -1.319530642758E+00 -1.302973261611E+00
 -1.286640491923E+00 -1.270527516349E+00 -1.254629778225E+00 -1.238942959790E+00
 -1.223462962798E+00 -1.208185890619E+00 -1.193108031774E+00 -1.178225844794E+00
 -1.163535944334E+00 -1.149035088448E+00 -1.134720166941E+00 -1.120588190729E+00
 -1.106636282123E+00 -1.092861665971E+00 -1.079236513343E+00 -1.065793654262E+00
 -1.052527421174E+00 -1.039433081094E+00 -1.026506611261E+00 -1.013744528205E+00
 -1.001143757950E+00 -9.887015377958E-01 -9.764153422485E-01 -9.642828273494E-01
 -9.523017889759E-01 -9.404701317052E-01 -9.287858456374E-01 -9.172469891928E-01
 -9.058516763750E-01 -8.945980673585E-01 -8.834843615449E-01 -8.725087924393E-01