<?xml version="1.0" encoding="UTF-8" ?>
<psml version="1.1" energy_unit="hartree" length_unit="bohr"
 uuid="ecf3ef40-76e4-11e7-5af7-6ff2feffd7f9"
 xmlns="http://esl.cecam.org/PSML/ns/1.1">
<provenance creator="ONCVPSP-3.3.0+psml-3.3.0-72 (scalar-relativistic)"
 date="2017-08-01">
<annotation action="semilocal-pseudopotential-generation"
 action-cont="projectors-generation" />
<input-file name="oncvpsp-input">
<![CDATA[# atsym  z   nc   nv     iexc    psfile
Si 14.00    3    2       4      psp8
#
#   n    l    f        energy (Ha)
1    0    2.00    -6.5631993D+01
2    0    2.00    -5.1265474D+00
2    1    6.00    -3.5117357D+00
3    0    2.00    -3.9736459D-01
3    1    2.00    -1.4998149D-01
#
# PSEUDOPOTENTIAL AND OPTIMIZATION
# lmax
2
#
#   l,   rc,     ep,   ncon, nbas, qcut
0    1.60   -0.40    4    9    6.40
1    1.71   -0.15    4    9    6.40
2    1.90    0.05    4    9    6.40
#
# LOCAL POTENTIAL
# lloc, lpopt,  rc(5),   dvloc0
4    5      1.60       0.00
#
# VANDERBILT-KLEINMAN-BYLANDER PROJECTORs
# l, nproj, debl
0    2    2.5000
1    2    2.5000
2    2    1.5000
#
# MODEL CORE CHARGE
# icmod, fcfact, rcfact
3    4.00    1.30
#
# LOG DERIVATIVE ANALYSIS
# epsh1, epsh2, depsh
-12.00   12.00    0.02
#
# OUTPUT GRID
# rlmax, drl
6.00    0.01
#
# TEST CONFIGURATIONS
# ncnf
0
# nvcnf
#   n    l    f
]]>
</input-file>
</provenance>
<pseudo-atom-spec atomic-label="Si" atomic-number="14" z-pseudo="4"
 flavor="Hamann&apos;s oncvpsp" relativity="scalar" spin-dft="no"
 core-corrections="yes">
<annotation pseudo-energy="-3.76012308614" />
<exchange-correlation>
<annotation oncvpsp-xc-code="4" oncvpsp-xc-type="GGA -- Perdew-Burke-Ernzerhof" />
<libxc-info number-of-functionals="2">
<functional name="Perdew, Burke &amp; Ernzerhof (GGA)" type="exchange" id="101" />
<functional name="Perdew, Burke &amp; Ernzerhof (GGA)" type="correlation"
 id="130" />
</libxc-info>
</exchange-correlation>
<valence-configuration total-valence-charge="4">
<shell n="3" l="s" occupation="2" />
<shell n="3" l="p" occupation="2" />
</valence-configuration>
</pseudo-atom-spec>
<grid npts="457">
<annotation type="sampled from oncvpsp log grid"
 recipe="r(i:1..N) = r1*exp(a*(i-1)) + r=0; resampled"
 recipe-cont="r1: scale; a: step" scale="0.357142857143E-04"
 step="0.119285708653E-01" delta="0.500000000000E-02" rmax="44.1697227368" />
<grid-data>
  0.000000000000E+00  5.043762840785E-03  1.007452045417E-02  1.511338716874E-02
  2.012306398724E-02  2.524200484366E-02  3.055005847129E-02  3.567456681735E-02
  4.067657200651E-02  4.582995923277E-02  5.102395083885E-02  5.613299095240E-02
  6.175360044568E-02  6.713142577090E-02  7.297758014932E-02  7.839214240648E-02
  8.420843742015E-02  8.938366768873E-02  9.487695407084E-02  1.007078434632E-01
  1.068970840635E-01  1.121212442685E-01  1.176007140554E-01  1.233479706417E-01
  1.293761010181E-01  1.356988317486E-01  1.423305602273E-01  1.475161931447E-01
  1.528907580013E-01  1.584611382921E-01  1.642344683032E-01  1.702181422495E-01
  1.764198237449E-01  1.828474556171E-01  1.895092700805E-01  1.964137992801E-01
  2.035698862185E-01  2.109866960820E-01  2.160807588722E-01  2.212978127144E-01
  2.266408271046E-01  2.321128432342E-01  2.377169757212E-01  2.434564143831E-01
  2.493344260519E-01  2.553543564345E-01  2.615196320163E-01  2.678337620117E-01
  2.743003403617E-01  2.809230477794E-01  2.877056538450E-01  2.946520191514E-01
  3.017660975018E-01  3.090519381599E-01  3.165136881548E-01  3.241555946416E-01
  3.319820073186E-01  3.399973809033E-01  3.482062776679E-01  3.566133700359E-01
  3.652234432420E-01  3.740413980557E-01  3.830722535703E-01  3.923211500605E-01
  4.017933519076E-01  4.114942505960E-01  4.214293677824E-01  4.264865201958E-01
  4.316043584382E-01  4.367836107394E-01  4.420250140683E-01  4.473293142371E-01
  4.526972660080E-01  4.581296332001E-01  4.636271887985E-01  4.691907150641E-01
  4.748210036448E-01  4.805188556886E-01  4.862850819568E-01  4.921205029403E-01
  4.980259489756E-01  5.040022603633E-01  5.100502874877E-01  5.161708909375E-01
  5.223649416288E-01  5.286333209283E-01  5.349769207794E-01  5.413966438288E-01
  5.478934035547E-01  5.544681243974E-01  5.611217418902E-01  5.678552027928E-01
  5.746694652264E-01  5.815654988091E-01  5.885442847948E-01  5.956068162123E-01
  6.027540980069E-01  6.099871471830E-01  6.173069929492E-01  6.247146768645E-01
  6.322112529869E-01  6.397977880228E-01  6.474753614790E-01  6.552450658168E-01
  6.631080066066E-01  6.710653026859E-01  6.791180863181E-01  6.872675033539E-01
  6.955147133942E-01  7.038608899549E-01  7.123072206343E-01  7.208549072820E-01
  7.295051661693E-01  7.382592281634E-01  7.471183389013E-01  7.560837589681E-01
  7.651567640758E-01  7.743386452447E-01  7.836307089876E-01  7.930342774955E-01
  8.025506888254E-01  8.121812970913E-01  8.219274726564E-01  8.317906023283E-01
  8.417720895562E-01  8.518733546309E-01  8.620958348865E-01  8.724409849051E-01
  8.829102767240E-01  8.935052000447E-01  9.042272624452E-01  9.150779895945E-01
  9.260589254697E-01  9.371716325753E-01  9.484176921662E-01  9.597987044722E-01
  9.713162889259E-01  9.829720843930E-01  9.947677494057E-01  1.006704962399E+00
  1.018785421947E+00  1.031010847011E+00  1.043382977175E+00  1.055903572901E+00
  1.068574415776E+00  1.081397308765E+00  1.094374076470E+00  1.107506565388E+00
  1.120796644173E+00  1.134246203903E+00  1.147857158349E+00  1.161631444250E+00
  1.175571021581E+00  1.189677873840E+00  1.203954008326E+00  1.218401456426E+00
  1.233022273903E+00  1.247818541190E+00  1.262792363684E+00  1.277945872048E+00
  1.293281222513E+00  1.308800597183E+00  1.324506204349E+00  1.340400278801E+00
  1.356485082147E+00  1.372762903132E+00  1.389236057970E+00  1.405906890666E+00
  1.422777773354E+00  1.439851106634E+00  1.457129319914E+00  1.474614871753E+00
  1.492310250214E+00  1.510217973216E+00  1.528340588895E+00  1.546680675961E+00
  1.565240844073E+00  1.584023734202E+00  1.603032019012E+00  1.622268403240E+00
  1.641735624079E+00  1.661436451568E+00  1.681373688987E+00  1.701550173255E+00
  1.721968775334E+00  1.742632400638E+00  1.763543989446E+00  1.784706517319E+00
  1.806122995527E+00  1.827796471473E+00  1.849730029131E+00  1.871926789480E+00
  1.894389910954E+00  1.917122589886E+00  1.940128060964E+00  1.963409597696E+00
  1.986970512868E+00  2.010814159023E+00  2.034943928931E+00  2.059363256078E+00
  2.084075615151E+00  2.109084522533E+00  2.134393536803E+00  2.160006259245E+00
  2.185926334356E+00  2.212157450368E+00  2.238703339772E+00  2.265567779850E+00
  2.292754593208E+00  2.320267648326E+00  2.348110860106E+00  2.376288190428E+00
  2.404803648713E+00  2.433661292497E+00  2.462865228007E+00  2.492419610743E+00
  2.522328646072E+00  2.552596589825E+00  2.583227748903E+00  2.614226481890E+00
  2.645597199672E+00  2.677344366069E+00  2.709472498461E+00  2.741986168443E+00
  2.774890002464E+00  2.808188682494E+00  2.841886946684E+00  2.875989590044E+00
  2.910501465124E+00  2.945427482706E+00  2.980772612498E+00  3.016541883848E+00
  3.052740386455E+00  3.089373271092E+00  3.126445750345E+00  3.163963099349E+00
  3.201930656541E+00  3.240353824420E+00  3.279238070313E+00  3.318588927157E+00
  3.358411994283E+00  3.398712938214E+00  3.439497493473E+00  3.480771463394E+00
  3.522540720955E+00  3.564811209606E+00  3.607588944122E+00  3.650880011451E+00
  3.694690571589E+00  3.739026858448E+00  3.783895180749E+00  3.829301922918E+00
  3.875253545993E+00  3.921756588545E+00  3.968817667608E+00  4.016443479619E+00
  4.064640801374E+00  4.113416490991E+00  4.162777488883E+00  4.212730818749E+00
  4.263283588574E+00  4.314442991637E+00  4.366216307537E+00  4.418610903227E+00
  4.471634234066E+00  4.525293844875E+00  4.579597371013E+00  4.634552539465E+00
  4.690167169939E+00  4.746449175978E+00  4.803406566090E+00  4.861047444883E+00
  4.919380014222E+00  4.978412574392E+00  5.038153525285E+00  5.098611367588E+00
  5.159794703999E+00  5.221712240447E+00  5.284372787333E+00  5.347785260781E+00
  5.411958683910E+00  5.476902188117E+00  5.542625014375E+00  5.609136514547E+00
  5.676446152722E+00  5.744563506554E+00  5.813498268633E+00  5.883260247857E+00
  5.953859370831E+00  6.025305683281E+00  6.097609351480E+00  6.170780663698E+00
  6.244830031662E+00  6.319767992042E+00  6.395605207947E+00  6.472352470442E+00
  6.550020700087E+00  6.628620948488E+00  6.708164399870E+00  6.788662372669E+00
  6.870126321141E+00  6.952567836994E+00  7.035998651038E+00  7.120430634851E+00
  7.205875802469E+00  7.292346312099E+00  7.379854467844E+00  7.468412721458E+00
  7.558033674116E+00  7.648730078205E+00  7.740514839143E+00  7.833401017213E+00
  7.927401829420E+00  8.022530651373E+00  8.118801019189E+00  8.216226631419E+00
  8.314821350996E+00  8.414599207208E+00  8.515574397695E+00  8.617761290467E+00
  8.721174425953E+00  8.825828519064E+00  8.931738461293E+00  9.038919322829E+00
  9.147386354702E+00  9.257154990959E+00  9.368240850850E+00  9.480659741061E+00
  9.594427657953E+00  9.709560789849E+00  9.826075519327E+00  9.943988425559E+00
  1.006331628667E+01  1.018407608211E+01  1.030628499509E+01  1.042996041503E+01
  1.055511994001E+01  1.068178137929E+01  1.080996275584E+01  1.093968230891E+01
  1.107095849662E+01  1.120380999858E+01  1.133825571856E+01  1.147431478719E+01
  1.161200656463E+01  1.175135064341E+01  1.189236685113E+01  1.203507525334E+01
  1.217949615638E+01  1.232565011026E+01  1.247355791158E+01  1.262324060652E+01
  1.277471949380E+01  1.292801612773E+01  1.308315232126E+01  1.324015014911E+01
  1.339903195090E+01  1.355982033431E+01  1.372253817832E+01  1.388720863646E+01
  1.405385514010E+01  1.422250140178E+01  1.439317141861E+01  1.456588947563E+01
  1.474068014934E+01  1.491756831113E+01  1.509657913086E+01  1.527773808043E+01
  1.546107093740E+01  1.564660378865E+01  1.583436303411E+01  1.602437539052E+01
  1.621666789521E+01  1.641126790995E+01  1.660820312487E+01  1.680750156237E+01
  1.700919158111E+01  1.721330188009E+01  1.741986150265E+01  1.762889984068E+01
  1.784044663877E+01  1.805453199843E+01  1.827118638241E+01  1.849044061900E+01
  1.871232590643E+01  1.893687381731E+01  1.916411630312E+01  1.939408569875E+01
  1.962681472714E+01  1.986233650386E+01  2.010068454191E+01  2.034189275641E+01
  2.058599546949E+01  2.083302741512E+01  2.108302374411E+01  2.133602002904E+01
  2.159205226938E+01  2.185115689662E+01  2.211337077938E+01  2.237873122873E+01
  2.264727600347E+01  2.291904331551E+01  2.319407183530E+01  2.347240069732E+01
  2.375406950569E+01  2.403911833976E+01  2.432758775984E+01  2.461951881296E+01
  2.491495303871E+01  2.521393247518E+01  2.551649966488E+01  2.582269766086E+01
  2.613257003279E+01  2.644616087318E+01  2.676351480366E+01  2.708467698130E+01
  2.740969310508E+01  2.773860942234E+01  2.807147273541E+01  2.840833040823E+01
  2.874923037313E+01  2.909422113761E+01  2.944335179126E+01  2.979667201275E+01
  3.015423207691E+01  3.051608286183E+01  3.088227585617E+01  3.125286316645E+01
  3.162789752444E+01  3.200743229474E+01  3.239152148227E+01  3.278021974006E+01
  3.317358237694E+01  3.357166536547E+01  3.397452534985E+01  3.438221965405E+01
  3.479480628990E+01  3.521234396538E+01  3.563489209296E+01  3.606251079808E+01
  3.649526092765E+01  3.693320405879E+01  3.737640250749E+01  3.782491933758E+01
  3.827881836963E+01  3.873816419007E+01  3.920302216035E+01  3.967345842627E+01
  4.014953992739E+01  4.063133440652E+01  4.111891041939E+01  4.161233734443E+01
  4.211168539256E+01  4.261702561727E+01  4.312842992468E+01  4.364597108377E+01
  4.416972273678E+01
</grid-data>
</grid>
<valence-charge total-charge="4" is-unscreening-charge="yes"
 rescaled-to-z-pseudo="no">
<radfunc>
<data npts="457">
  2.854402290769E-02  2.855757737399E-02  2.859810286670E-02  2.866573582885E-02
  2.875981572420E-02  2.888360400920E-02  2.904150788732E-02  2.922251089272E-02
  2.942627148465E-02  2.966421307399E-02  2.993283405337E-02  3.022531309600E-02
  3.057949723817E-02  3.095023460825E-02  3.138866581518E-02  3.182770300117E-02
  3.233472546567E-02  3.281677784752E-02  3.336038965609E-02  3.397349190434E-02
  3.466505609457E-02  3.528157941244E-02  3.596060032079E-02  3.670853806258E-02
  3.753248848379E-02  3.844029876320E-02  3.944065100261E-02  4.025738942841E-02
  4.113599816743E-02  4.208126199782E-02  4.309834973644E-02  4.419284684097E-02
  4.537079093459E-02  4.663871050532E-02  4.800366704384E-02  4.947330089136E-02
  5.105588107128E-02  5.276035937265E-02  5.396915376908E-02  5.523948460116E-02
  5.657458757132E-02  5.797787541875E-02  5.945294766888E-02  6.100360082196E-02
  6.263383897402E-02  6.434788485639E-02  6.615019127223E-02  6.804545289892E-02
  7.003861841389E-02  7.213490288872E-02  7.433980038105E-02  7.665909663703E-02
  7.909888179769E-02  8.166556298080E-02  8.436587658590E-02  8.720690014398E-02
  9.019606350440E-02  9.334115912136E-02  9.665035116981E-02  1.001321831871E-01
  1.037955839026E-01  1.076498708834E-01  1.117047515905E-01  1.159703214107E-01
  1.204570581976E-01  1.251758128361E-01  1.301377953228E-01  1.327135937821E-01
  1.353545558435E-01  1.380621744252E-01  1.408379603243E-01  1.436834411142E-01
  1.466001599343E-01  1.495896741710E-01  1.526535540224E-01  1.557933809463E-01
  1.590107459853E-01  1.623072479667E-01  1.656844915721E-01  1.691440852742E-01
  1.726876391359E-01  1.763167624672E-01  1.800330613373E-01  1.838381359341E-01
  1.877335777698E-01  1.917209667226E-01  1.958018679114E-01  1.999778283946E-01
  2.042503736839E-01  2.086210040650E-01  2.130911907128E-01  2.176623715878E-01
  2.223359471003E-01  2.271132755238E-01  2.319956681383E-01  2.369843840813E-01
  2.420806248813E-01  2.472855286440E-01  2.526001638611E-01  2.580255228033E-01
  2.635625144612E-01  2.692119569874E-01  2.749745695964E-01  2.808509638687E-01
  2.868416344077E-01  2.929469487914E-01  2.991671367604E-01  3.055022785823E-01
  3.119522925312E-01  3.185169214237E-01  3.251957181526E-01  3.319880301671E-01
  3.388929828510E-01  3.459094617631E-01  3.530360937125E-01  3.602712266578E-01
  3.676129084362E-01  3.750588643507E-01  3.826064736691E-01  3.902527451145E-01
  3.979942914647E-01  4.058273034089E-01  4.137475228555E-01  4.217502159212E-01
  4.298301458852E-01  4.379815464300E-01  4.461980955475E-01  4.544728905283E-01
  4.627984245025E-01  4.711665650397E-01  4.795685353504E-01  4.879948986618E-01
  4.964355463549E-01  5.048796904577E-01  5.133158610776E-01  5.217319093287E-01
  5.301150162626E-01  5.384517082446E-01  5.467278791226E-01  5.549288194234E-01
  5.630392526744E-01  5.710433787849E-01  5.789249242436E-01  5.866671986926E-01
  5.942531572299E-01  6.016654675803E-01  6.088865810677E-01  6.158988061262E-01
  6.226843829183E-01  6.292255574945E-01  6.355046538447E-01  6.415041421710E-01
  6.472067017672E-01  6.525952770258E-01  6.576531253365E-01  6.623638559730E-01
  6.667114595098E-01  6.706803278549E-01  6.742552656188E-01  6.774214942522E-01
  6.801646511485E-01  6.824707866929E-01  6.843263630005E-01  6.857182587908E-01
  6.866337854189E-01  6.870607194888E-01  6.869873576411E-01  6.864025989784E-01
  6.852960601206E-01  6.836582270308E-01  6.814806464851E-01  6.787561583884E-01
  6.754791680840E-01  6.716459554122E-01  6.672550146509E-01  6.623074167303E-01
  6.568071824136E-01  6.507616526690E-01  6.441818404156E-01  6.370825416699E-01
  6.294815373435E-01  6.213982513002E-01  6.128536185544E-01  6.038704797910E-01
  5.944735480318E-01  5.846893597374E-01  5.745456322218E-01  5.640702738371E-01
  5.532911293537E-01  5.422360638307E-01  5.309327988187E-01  5.194088437956E-01
  5.076914160126E-01  4.958073649625E-01  4.837831002769E-01  4.716445232257E-01
  4.594169620185E-01  4.471251110976E-01  4.347929746003E-01  4.224438141516E-01
  4.101001011240E-01  3.977834734760E-01  3.855146972521E-01  3.733136327962E-01
  3.611992056989E-01  3.491893824700E-01  3.373011508962E-01  3.255505050132E-01
  3.139524345988E-01  3.025209190631E-01  2.912689255917E-01  2.802084113759E-01
  2.693503297463E-01  2.587046400077E-01  2.482803207628E-01  2.380853864991E-01
  2.281269072044E-01  2.184110307712E-01  2.089430079446E-01  1.997272195669E-01
  1.907672058714E-01  1.820656975800E-01  1.736246485615E-01  1.654452698134E-01
  1.575280645377E-01  1.498728640762E-01  1.424788645094E-01  1.353446636951E-01
  1.284682985585E-01  1.218472824488E-01  1.154786423877E-01  1.093589560489E-01
  1.034843883200E-01  9.785072730734E-02  9.245341966020E-02  8.728760509997E-02
  8.234815005301E-02  7.762968029619E-02  7.312661253594E-02  6.883318485129E-02
  6.474348594173E-02  6.085148312992E-02  5.715104907801E-02  5.363598718489E-02
  5.030005563921E-02  4.713699010860E-02  4.414052505696E-02  4.130441368269E-02
  3.862244647954E-02  3.608846842671E-02  3.369639482032E-02  3.144022576314E-02
  2.931405933459E-02  2.731210346726E-02  2.542868656077E-02  2.365826686778E-02
  2.199544069085E-02  2.043494943229E-02  1.897168554279E-02  1.760069741711E-02
  1.631719328811E-02  1.511654417247E-02  1.399428592336E-02  1.294612044672E-02
  1.196791613875E-02  1.105570760305E-02  1.020569470557E-02  9.414241025615E-03
  8.677871760372E-03  7.993271139141E-03  7.357279402420E-03  6.766889398942E-03
  6.219242851915E-03  5.711626343391E-03  5.241467063278E-03  4.806328366840E-03
  4.403905181840E-03  4.032019303593E-03  3.688614613390E-03  3.371752252804E-03
  3.079605783538E-03  2.810456359652E-03  2.562687936206E-03  2.334782535700E-03
  2.125315591080E-03  1.932951381645E-03  1.756438575798E-03  1.594605892437E-03
  1.446357890643E-03  1.310670895460E-03  1.186589065737E-03  1.073220608396E-03
  9.697341419839E-04  8.753552110403E-04  7.893629516049E-04  7.110869071204E-04
  6.399039930679E-04  5.752356078667E-04  5.165448868929E-04  4.633340959105E-04
  4.151421597585E-04  3.715423217826E-04  3.321399292452E-04  2.965703397717E-04
  2.644969437906E-04  2.356092978929E-04  2.096213640580E-04  1.862698497634E-04
  1.653126441061E-04  1.465273452011E-04  1.297098742881E-04  1.146731721540E-04
  1.012459736703E-04  8.927165643761E-05  7.860715972255E-05  6.912197006667E-05
  6.069717012835E-05  5.322454749769E-05  4.660576039042E-05  4.075155728326E-05
  3.558104769871E-05  3.102102148174E-05  2.700531403488E-05  2.347421509237E-05
  2.037391871951E-05  1.765601232010E-05  1.527700252507E-05  1.319787591961E-05
  1.138369264442E-05  9.803210981881E-06  8.428541108785E-06  7.234826266240E-06
  6.199949663629E-06  5.304265498878E-06  4.530352541132E-06  3.862788785297E-06
  3.287945750527E-06  2.793801057081E-06  2.369767977878E-06  2.006540722632E-06
  1.695954273644E-06  1.430857652911E-06  1.204999560258E-06  1.012925381344E-06
  8.498846226307E-07  7.117478875162E-07  5.949325635512E-07  4.963364450049E-07
  4.132785676691E-07  3.434465836845E-07  2.848500531463E-07  2.357790762143E-07
  1.947677343210E-07  1.605618517813E-07  1.320906296000E-07  1.084417415367E-07
  8.883951850165E-08  7.262588113721E-08  5.924371201474E-08  4.822238827992E-08
  3.916522287382E-08  3.173858770040E-08  2.566251538156E-08  2.070259762009E-08
  1.666301776724E-08  1.338057305810E-08  1.071955823125E-08  8.567396986724E-09
  6.830921056282E-09  5.433208661486E-09  4.310904912766E-09  3.411956352256E-09
  2.693700454650E-09  2.121258561875E-09  1.666187522254E-09  1.305351312508E-09
  1.019979216027E-09  7.948817834532E-10  6.177998769899E-10  4.788656586100E-10
  3.701574802634E-10  2.853333226417E-10  2.193297548793E-10  1.681153934137E-10
  1.284895627122E-10  9.791833849942E-11  7.440141677782E-11  5.636432724849E-11
  4.257142261086E-11  3.205584771288E-11  2.406334412473E-11  1.800729356609E-11
  1.343286275000E-11  9.988495727012E-12  7.403319117827E-12  5.469290583068E-12
  4.027140008626E-12  2.955333501936E-12  2.161438661641E-12  1.575391041505E-12
  1.144260816215E-12  8.281992107976E-13  5.973095128751E-13  4.292401650166E-13
  3.073398055597E-13  2.192480839076E-13  1.558231916587E-13  1.103286228403E-13
  7.781877432414E-14  5.467649815424E-14  3.826633724343E-14  2.667549737005E-14
  1.852110365855E-14  1.280733964259E-14  8.819977618979E-15  6.048825195109E-15
  4.130929617495E-15  2.809155574525E-15  1.902097154260E-15  1.282318587230E-15
  8.606818971636E-16  5.751084642846E-16  3.825549219969E-16  2.533092579161E-16
  1.669542789626E-16  1.095239114340E-16  7.150898015704E-17  4.646516275743E-17
  3.004583127003E-17  1.933325318863E-17  1.237836956404E-17  7.885570697225E-18
  4.997887280682E-18  3.151337110689E-18  1.976642154573E-18  0.000000000000E+00
  0.000000000000E+00  0.000000000000E+00  0.000000000000E+00  0.000000000000E+00
  0.000000000000E+00  0.000000000000E+00  0.000000000000E+00  0.000000000000E+00
  0.000000000000E+00  0.000000000000E+00  0.000000000000E+00  0.000000000000E+00
  0.000000000000E+00  0.000000000000E+00  0.000000000000E+00  0.000000000000E+00
  0.000000000000E+00  0.000000000000E+00  0.000000000000E+00  0.000000000000E+00
  0.000000000000E+00
</data>
</radfunc>
</valence-charge>
<pseudocore-charge matching-radius="1.18967787384"
 number-of-continuous-derivatives="4">
<annotation model-charge-form="Teter function with specified parameters" />
<radfunc>
<data npts="290">
  2.818824695166E+00  2.818729975608E+00  2.818446811011E+00  2.817974341784E+00
  2.817317336399E+00  2.816453246455E+00  2.815351648648E+00  2.814089773637E+00
  2.812670354918E+00  2.811014317314E+00  2.809146682263E+00  2.807115490115E+00
  2.804659005159E+00  2.802091500800E+00  2.799060178988E+00  2.796030073527E+00
  2.792537468249E+00  2.789223525227E+00  2.785494144934E+00  2.781297877030E+00
  2.776577068515E+00  2.772379621005E+00  2.767768746207E+00  2.762704478798E+00
  2.757143148676E+00  2.751037071122E+00  2.744334218372E+00  2.738881512581E+00
  2.733035545410E+00  2.726768853603E+00  2.720052194344E+00  2.712854451565E+00
  2.705142540880E+00  2.696881313825E+00  2.688033462238E+00  2.678559423799E+00
  2.668417289932E+00  2.657562717519E+00  2.649907501694E+00  2.641900351154E+00
  2.633526222851E+00  2.624769544696E+00  2.615614208876E+00  2.606043566552E+00
  2.596040424130E+00  2.585587041347E+00  2.574665131407E+00  2.563255863435E+00
  2.551339867550E+00  2.538897242855E+00  2.525907568708E+00  2.512349919616E+00
  2.498202884173E+00  2.483444588441E+00  2.468052724253E+00  2.452004582896E+00
  2.435277094702E+00  2.417846875092E+00  2.399690277629E+00  2.380783454696E+00
  2.361102426410E+00  2.340623158434E+00  2.319321649345E+00  2.297174028258E+00
  2.274156663376E+00  2.250246282201E+00  2.225420104069E+00  2.212656642216E+00
  2.199655985710E+00  2.186415492357E+00  2.172932580482E+00  2.159204734696E+00
  2.145229511898E+00  2.131004547519E+00  2.116527562007E+00  2.101796367563E+00
  2.086808875117E+00  2.071563101566E+00  2.056057177252E+00  2.040289353705E+00
  2.024258011628E+00  2.007961669139E+00  1.991398990267E+00  1.974568793690E+00
  1.957470061722E+00  1.940101949540E+00  1.922463794646E+00  1.904555126559E+00
  1.886375676725E+00  1.867925388641E+00  1.849204428183E+00  1.830213194113E+00
  1.810952328775E+00  1.791422728933E+00  1.771625556769E+00  1.751562250987E+00
  1.731234538032E+00  1.710644443374E+00  1.689794302854E+00  1.668686774047E+00
  1.647324847619E+00  1.625711858647E+00  1.603851497858E+00  1.581747822760E+00
  1.559405268610E+00  1.536828659189E+00  1.514023217327E+00  1.490994575132E+00
  1.467748783870E+00  1.444292323440E+00  1.420632111382E+00  1.396775511358E+00
  1.372730341048E+00  1.348504879376E+00  1.324107873008E+00  1.299548542049E+00
  1.274836584854E+00  1.249982181874E+00  1.224995998468E+00  1.199889186578E+00
  1.174673385200E+00  1.149360719548E+00  1.123963798834E+00  1.098495712568E+00
  1.072970025284E+00  1.047400769620E+00  1.021802437637E+00  9.961899703100E-01
  9.705787450913E-01  9.449845614729E-01  9.194236244565E-01  8.939125258627E-01
  8.684682234047E-01  8.431080174615E-01  8.178495254923E-01  7.927106540421E-01
  7.677095682963E-01  7.428646591548E-01  7.181945078047E-01  6.937178477865E-01
  6.694535245602E-01  6.454204525948E-01  6.216375700203E-01  5.981237908992E-01
  5.748979551950E-01  5.519787765338E-01  5.293847878776E-01  5.071342852510E-01
  4.852452696860E-01  4.637353875741E-01  4.426218696417E-01  4.219214687888E-01
  4.016503970590E-01  3.818242620343E-01  3.624580029762E-01  3.435658270579E-01
  3.251611460623E-01  3.072565139400E-01  2.898635656490E-01  2.729929577166E-01
  2.566543109835E-01  2.408561560081E-01  2.256058816208E-01  2.109096871285E-01
  1.967725386761E-01  1.831981302721E-01  1.701888499816E-01  1.577457517818E-01
  1.458685335584E-01  1.345555217013E-01  1.238036627273E-01  1.136085223249E-01
  1.039642921710E-01  9.486380482124E-02  8.629855691535E-02  7.825874087694E-02
  7.073328521165E-02  6.370990343019E-02  5.717515153566E-02  5.111449392343E-02
  4.551237744459E-02  4.035231328345E-02  3.561696619556E-02  3.128825054754E-02
  2.734743249481E-02  2.377523752972E-02  2.055196253255E-02  1.765759136352E-02
  1.507191294704E-02  1.277464072249E-02  1.074553227071E-02  8.964507874524E-03
  7.411766736862E-03  6.067899563509E-03  4.913996221074E-03  3.931747205490E-03
  3.103537703964E-03  2.412533104137E-03  1.842754898780E-03  1.379146052384E-03
  1.007625036617E-03  7.151279034562E-04  4.896379456699E-04  3.202026914765E-04
  1.969381901856E-04  1.110207643130E-04  5.466662641044E-05  2.109998046616E-05
  4.510442650532E-06  8.185852618443E-10  3.526458293629E-06  1.182756973892E-05
  2.235600187838E-05  3.319810348283E-05  4.299532038388E-05  5.086420808018E-05
  5.631750671796E-05  5.918785069323E-05  5.955556635994E-05  5.768185104842E-05
  5.394842894083E-05  4.880455008235E-05  4.272194521114E-05  3.615807977410E-05
  2.952777511001E-05  2.318299366446E-05  1.740032884945E-05  1.237550914547E-05
  8.224029891228E-06  4.986873269792E-06  2.640173851079E-06  1.107638027500E-06
  2.745325195908E-07  2.118727534450E-09  1.415220237631E-07  5.461812320182E-07
  1.082214051014E-06  1.636247470243E-06  2.120485227180E-06  2.475003314915E-06
  2.667465917378E-06  2.690625523417E-06  2.558102017968E-06  2.299018829182E-06
  1.952105829683E-06  1.559858701739E-06  1.163276982348E-06  7.975959170757E-07
  4.892917032085E-07  2.544891351471E-07  9.874965263049E-08  1.808069944043E-08
  8.968887664430E-10  3.058960661620E-08  8.833028115969E-08  1.557448912749E-07
  2.171498480098E-07  2.611241496690E-07  2.812980874994E-07  2.763509337452E-07
  2.493145996332E-07  2.063641054752E-07  1.553287554370E-07  1.041744336925E-07
  5.968691851021E-08  2.653333910887E-08  6.803309504089E-09  4.553975886508E-11
  0.000000000000E+00  0.000000000000E+00  0.000000000000E+00  0.000000000000E+00
  0.000000000000E+00  0.000000000000E+00  0.000000000000E+00  0.000000000000E+00
  0.000000000000E+00  0.000000000000E+00  0.000000000000E+00  0.000000000000E+00
  0.000000000000E+00  0.000000000000E+00  0.000000000000E+00  0.000000000000E+00
  0.000000000000E+00  0.000000000000E+00  0.000000000000E+00  0.000000000000E+00
  0.000000000000E+00  0.000000000000E+00
</data>
</radfunc>
</pseudocore-charge>
<semilocal-potentials set="scalar_relativistic">
<slps n="3" l="s" rc="1.60303201901" eref="-0.397364586851">
<radfunc>
<data npts="290">
  1.098441719632E+01  1.098300550372E+01  1.097878544387E+01  1.097174480761E+01
  1.096195565597E+01  1.094908353518E+01  1.093267754330E+01  1.091389049254E+01
  1.089276565107E+01  1.086812991795E+01  1.084036054802E+01  1.081017685294E+01
  1.077369855013E+01  1.073560228108E+01  1.069066585818E+01  1.064579461109E+01
  1.059413533964E+01  1.054518137445E+01  1.049016648246E+01  1.042836423669E+01
  1.035896862405E+01  1.029738860309E+01  1.022988109097E+01  1.015590803383E+01
  1.007489057350E+01  9.986208031695E+00  9.889197487367E+00  9.810551892371E+00
  9.726513803245E+00  9.636758603820E+00  9.540950317072E+00  9.438742807638E+00
  9.329781364563E+00  9.213704721785E+00  9.090147577333E+00  8.958743674513E+00
  8.819129508885E+00  8.670948723137E+00  8.567231708836E+00  8.459456298506E+00
  8.347529231620E+00  8.231362649531E+00  8.110875116050E+00  7.985992711767E+00
  7.856650200028E+00  7.722792260997E+00  7.584374788494E+00  7.441366242352E+00
  7.293749046859E+00  7.141521023435E+00  6.984696843095E+00  6.823309481409E+00
  6.657411655718E+00  6.487077221265E+00  6.312402499698E+00  6.133507510281E+00
  5.950537070984E+00  5.763661733730E+00  5.573078515413E+00  5.379011384027E+00
  5.181711457567E+00  4.981456872338E+00  4.778552277218E+00  4.573327911338E+00
  4.366138224902E+00  4.157360006579E+00  3.947389986323E+00  3.842086767929E+00
  3.736641889935E+00  3.631109148151E+00  3.525542931193E+00  3.419998080099E+00
  3.314529739458E+00  3.209193200325E+00  3.104043735270E+00  2.999136425972E+00
  2.894525983929E+00  2.790266564842E+00  2.686411577453E+00  2.583013487631E+00
  2.480123618680E+00  2.377791948903E+00  2.276066907638E+00  2.174995171066E+00
  2.074621459230E+00  1.974988335836E+00  1.876136012564E+00  1.778102159679E+00
  1.680921724943E+00  1.584626762876E+00  1.489246276595E+00  1.394806074498E+00
  1.301328644210E+00  1.208833046250E+00  1.117334829956E+00  1.026845974203E+00
  9.373748555178E-01  8.489262460972E-01  7.615013442305E-01  6.750978394898E-01
  5.897100149317E-01  5.053288883199E-01  4.219423941511E-01  3.395356079499E-01
  2.580910138937E-01  1.775888164127E-01  9.800729587158E-02  1.932320786320E-02
 -5.848777502750E-02 -1.354505808667E-01 -2.115902180847E-01 -2.869312208139E-01
 -3.614970643135E-01 -4.353095559382E-01 -5.083882080683E-01 -5.807496005595E-01
 -6.524067411063E-01 -7.233684333063E-01 -7.936386625029E-01 -8.632160114989E-01
 -9.320931176616E-01 -1.000256184929E+00 -1.067684563857E+00 -1.134350413625E+00
 -1.200218459813E+00 -1.265245861681E+00 -1.329382202130E+00 -1.392569612741E+00
 -1.454743045037E+00 -1.515830697564E+00 -1.575754606313E+00 -1.634431403570E+00