<?xml version="1.0" encoding="UTF-8" ?>
<psml version="1.1" energy_unit="hartree" length_unit="bohr"
 uuid="e58da6e0-764b-11e7-5ad4-1520ff9b5df0"
 xmlns="http://esl.cecam.org/PSML/ns/1.1">
<provenance record-number="2" creator="psop-1.1" date="2017-07-31">
<annotation source-uuid="52959b00-6d35-11e7-412e-2ea7fffd684c"
 command-line="/Users/javier/Code/Launchpad/trunk-psml/Pseudo/vnl-operator/psop -K -o Fe.psml Fe.tm2.psml"
 action="inserted-local-potential" action-cont="inserted-nonlocal-projectors" />
</provenance>
<provenance record-number="1" creator="ATM4.2.6" date="20-JUL-17">
<annotation action="semilocal-pseudopotential-generation" />
<input-file name="INP">
<![CDATA[#  PS generation with core corrections
#  GGA (Perdew-Burke-Ernzerhof) XC , relativistic
#
   pe   Fe, GGA, rcore=0.70
        tm2      3.0
 n=Fe c=pbr
       0.0       0.0       0.0       0.0       0.0       0.0
    5    4
    4    0      2.00      0.00    # 4s2
    4    1      0.00      0.00    # 4p0
    3    2      6.00      0.00    # 3d6
    4    3      0.00      0.00    # 4f0
      2.25      2.75      2.00      2.00      0.00      0.70
#                                                        |
#                                       Radius of pseudocore
]]>
</input-file>
</provenance>
<pseudo-atom-spec atomic-label="Fe" atomic-number="26" z-pseudo="8"
 flavor="Troullier-Martins" relativity="dirac" spin-dft="no"
 core-corrections="yes">
<annotation pseudo-energy="-28.4200423951" />
<exchange-correlation>
<annotation atom-xc-code="pb" siesta-xc-type="GGA" siesta-xc-authors="PBE" />
<libxc-info number-of-functionals="2">
<functional name="XC_GGA_X_PBE" type="XC_EXCHANGE" id="101" />
<functional name="XC_GGA_C_PBE" type="XC_CORRELATION" id="130" />
</libxc-info>
</exchange-correlation>
<valence-configuration total-valence-charge="8">
<shell n="4" l="s" occupation="2" />
<shell n="3" l="d" occupation="6" />
</valence-configuration>
</pseudo-atom-spec>
<grid npts="376">
<annotation type="sampled-log-atom"
 recipe="r(i:1..N) = a*(exp(b*(i-1))-1); resampled"
 recipe-cont="a: scale; b: step" scale="0.953366221795E-04"
 step="0.125000000000E-01" delta="0.500000000000E-02" rmax="20" />
<grid-data>
  0.000000000000E+00  5.045206506591E-03  1.012785411201E-02  1.515587180378E-02
  2.023590584959E-02  2.536594017362E-02  3.061682563780E-02  3.603593502449E-02
  4.136174610415E-02  4.688169253783E-02  5.247535342297E-02  5.800426115888E-02
  6.331701994321E-02  6.911558942121E-02  7.450602362804E-02  8.031628722597E-02
  8.550239139676E-02  9.102297054994E-02  9.689959646852E-02  1.031552321960E-01
  1.084490020607E-01  1.140141893104E-01  1.198647098119E-01  1.260151929139E-01
  1.324810180278E-01  1.375470253048E-01  1.428066148371E-01  1.482671837892E-01
  1.539364119863E-01  1.598222727146E-01  1.659330439359E-01  1.722773199293E-01
  1.788640233784E-01  1.857024179205E-01  1.928021211749E-01  2.001731182694E-01
  2.052429383422E-01  2.104411015212E-01  2.157708568276E-01  2.212355355319E-01
  2.268385532362E-01  2.325834120091E-01  2.384737025742E-01  2.445131065548E-01
  2.507053987751E-01  2.570544496193E-01  2.635642274509E-01  2.702388010928E-01
  2.770823423709E-01  2.840991287213E-01  2.912935458639E-01  2.986700905435E-01
  3.062333733407E-01  3.139881215535E-01  3.219391821519E-01  3.300915248077E-01
  3.384502450004E-01  3.470205672022E-01  3.558078481435E-01  3.648175801608E-01
  3.740553946301E-01  3.835270654861E-01  3.932385128313E-01  4.031958066366E-01
  4.082685847388E-01  4.134051705346E-01  4.186063666259E-01  4.238729857102E-01
  4.292058507074E-01  4.346057948886E-01  4.400736620059E-01  4.456103064249E-01
  4.512165932573E-01  4.568933984970E-01  4.626416091563E-01  4.684621234049E-01
  4.743558507098E-01  4.803237119781E-01  4.863666397001E-01  4.924855780956E-01
  4.986814832612E-01  5.049553233197E-01  5.113080785714E-01  5.177407416471E-01
  5.242543176636E-01  5.308498243804E-01  5.375282923588E-01  5.442907651230E-01
  5.511382993232E-01  5.580719649005E-01  5.650928452543E-01  5.722020374114E-01
  5.794006521975E-01  5.866898144109E-01  5.940706629979E-01  6.015443512312E-01
  6.091120468898E-01  6.167749324415E-01  6.245342052278E-01  6.323910776508E-01
  6.403467773628E-01  6.484025474582E-01  6.565596466673E-01  6.648193495535E-01
  6.731829467122E-01  6.816517449725E-01  6.902270676013E-01  6.989102545102E-01
  7.077026624649E-01  7.166056652970E-01  7.256206541188E-01  7.347490375406E-01
  7.439922418909E-01  7.533517114392E-01  7.628289086217E-01  7.724253142697E-01
  7.821424278410E-01  7.919817676546E-01  8.019448711272E-01  8.120332950140E-01
  8.222486156518E-01  8.325924292052E-01  8.430663519161E-01  8.536720203563E-01
  8.644110916831E-01  8.752852438981E-01  8.862961761098E-01  8.974456087987E-01
  9.087352840864E-01  9.201669660076E-01  9.317424407859E-01  9.434635171128E-01
  9.553320264302E-01  9.673498232170E-01  9.795187852782E-01  9.918408140391E-01
  1.004317834842E+00  1.016951797246E+00  1.029744675334E+00  1.042698468019E+00
  1.055815199357E+00  1.069096918865E+00  1.082545701838E+00  1.096163649677E+00
  1.109952890212E+00  1.123915578041E+00  1.138053894862E+00  1.152370049816E+00
  1.166866279832E+00  1.181544849974E+00  1.196408053800E+00  1.211458213714E+00
  1.226697681336E+00  1.242128837863E+00  1.257754094444E+00  1.273575892558E+00
  1.289596704393E+00  1.305819033233E+00  1.322245413851E+00  1.338878412901E+00
  1.355720629324E+00  1.372774694749E+00  1.390043273910E+00  1.407529065058E+00
  1.425234800382E+00  1.443163246439E+00  1.461317204587E+00  1.479699511418E+00
  1.498313039204E+00  1.517160696347E+00  1.536245427833E+00  1.555570215688E+00
  1.575138079451E+00  1.594952076641E+00  1.615015303233E+00  1.635330894149E+00
  1.655902023742E+00  1.676731906290E+00  1.697823796507E+00  1.719180990043E+00
  1.740806824003E+00  1.762704677468E+00  1.784877972021E+00  1.807330172285E+00
  1.830064786462E+00  1.853085366882E+00  1.876395510557E+00  1.899998859744E+00
  1.923899102516E+00  1.948099973333E+00  1.972605253631E+00  1.997418772410E+00
  2.022544406832E+00  2.047986082829E+00  2.073747775715E+00  2.099833510806E+00
  2.126247364053E+00  2.152993462672E+00  2.180075985796E+00  2.207499165126E+00
  2.235267285587E+00  2.263384686007E+00  2.291855759784E+00  2.320684955584E+00
  2.349876778026E+00  2.379435788392E+00  2.409366605337E+00  2.439673905613E+00
  2.470362424797E+00  2.501436958032E+00  2.532902360778E+00  2.564763549567E+00
  2.597025502776E+00  2.629693261399E+00  2.662771929842E+00  2.696266676712E+00
  2.730182735633E+00  2.764525406057E+00  2.799300054097E+00  2.834512113362E+00
  2.870167085809E+00  2.906270542598E+00  2.942828124969E+00  2.979845545119E+00
  3.017328587094E+00  3.055283107696E+00  3.093715037396E+00  3.132630381261E+00
  3.172035219894E+00  3.211935710379E+00  3.252338087251E+00  3.293248663462E+00
  3.334673831374E+00  3.376620063753E+00  3.419093914783E+00  3.462102021090E+00
  3.505651102778E+00  3.549747964480E+00  3.594399496420E+00  3.639612675490E+00
  3.685394566343E+00  3.731752322491E+00  3.778693187428E+00  3.826224495760E+00
  3.874353674350E+00  3.923088243482E+00  3.972435818029E+00  4.022404108651E+00
  4.073000922996E+00  4.124234166918E+00  4.176111845716E+00  4.228642065383E+00
  4.281833033872E+00  4.335693062380E+00  4.390230566648E+00  4.445454068270E+00
  4.501372196031E+00  4.557993687252E+00  4.615327389156E+00  4.673382260252E+00
  4.732167371731E+00  4.791691908885E+00  4.851965172546E+00  4.912996580533E+00
  4.974795669127E+00  5.037372094563E+00  5.100735634534E+00  5.164896189721E+00
  5.229863785343E+00  5.295648572719E+00  5.362260830854E+00  5.429710968050E+00
  5.498009523528E+00  5.567167169077E+00  5.637194710719E+00  5.708103090400E+00
  5.779903387699E+00  5.852606821557E+00  5.926224752036E+00  6.000768682085E+00
  6.076250259347E+00  6.152681277970E+00  6.230073680457E+00  6.308439559528E+00
  6.387791160012E+00  6.468140880756E+00  6.549501276570E+00  6.631885060180E+00
  6.715305104220E+00  6.799774443241E+00  6.885306275749E+00  6.971913966268E+00
  7.059611047426E+00  7.148411222068E+00  7.238328365405E+00  7.329376527171E+00
  7.421569933828E+00  7.514922990784E+00  7.609450284642E+00  7.705166585485E+00
  7.802086849180E+00  7.900226219716E+00  7.999600031567E+00  8.100223812096E+00
  8.202113283972E+00  8.305284367632E+00  8.409753183769E+00  8.515536055847E+00
  8.622649512655E+00  8.731110290889E+00  8.840935337765E+00  8.952141813673E+00
  9.064747094848E+00  9.178768776096E+00  9.294224673535E+00  9.411132827386E+00
  9.529511504785E+00  9.649379202641E+00  9.770754650526E+00  9.893656813600E+00
  1.001810489558E+01  1.014411834172E+01  1.027171684189E+01  1.040092033361E+01
  1.053174900520E+01  1.066422329888E+01  1.079836391405E+01  1.093419181045E+01
  1.107172821146E+01  1.121099460743E+01  1.135201275901E+01  1.149480470057E+01
  1.163939274365E+01  1.178579948043E+01  1.193404778725E+01  1.208416082821E+01
  1.223616205879E+01  1.239007522947E+01  1.254592438952E+01  1.270373389067E+01
  1.286352839099E+01  1.302533285868E+01  1.318917257603E+01  1.335507314333E+01
  1.352306048287E+01  1.369316084302E+01  1.386540080231E+01  1.403980727358E+01
  1.421640750820E+01  1.439522910031E+01  1.457629999115E+01  1.475964847342E+01
  1.494530319569E+01  1.513329316688E+01  1.532364776082E+01  1.551639672079E+01
  1.571157016422E+01  1.590919858734E+01  1.610931287001E+01  1.631194428048E+01
  1.651712448034E+01  1.672488552939E+01  1.693525989073E+01  1.714828043578E+01
  1.736398044944E+01  1.758239363526E+01  1.780355412076E+01  1.802749646270E+01
  1.825425565254E+01  1.848386712187E+01  1.871636674793E+01  1.895179085927E+01
  1.919017624139E+01  1.943156014249E+01  1.967598027928E+01  1.992347484293E+01
</grid-data>
</grid>
<valence-charge total-charge="8">
<radfunc>
<data>
  2.728299771158E-02  2.728405168976E-02  2.728946026602E-02  2.730564167964E-02
  2.734394559641E-02  2.742077640034E-02  2.756048063607E-02  2.779774290072E-02
  2.815653946629E-02  2.870091688703E-02  2.948047055594E-02  3.053084382549E-02
  3.185753186830E-02  3.372860652278E-02  3.593201506673E-02  3.888845098488E-02
  4.210906869708E-02  4.621985177107E-02  5.146378599005E-02  5.814862083134E-02
  6.479214424910E-02  7.284984874276E-02  8.261626501424E-02  9.444490752219E-02
  1.087592549398E-01  1.214272434519E-01  1.360248998532E-01  1.528356050874E-01
  1.721816747338E-01  1.944290284115E-01  2.199922419541E-01  2.493399631747E-01
  2.830006527349E-01  3.215685864887E-01  3.657100234900E-01  4.161694032876E-01
  4.537245328501E-01  4.947215815979E-01  5.394464848709E-01  5.882041968009E-01
  6.413191628790E-01  6.991356485827E-01  7.620178882825E-01  8.303500135869E-01
  9.045357148509E-01  9.849975838024E-01  1.072176079200E+00  1.166528051233E+00
  1.268524754129E+00  1.378649270327E+00  1.497393263871E+00  1.625252975581E+00
  1.762724368561E+00  1.910297330025E+00  2.068448834836E+00  2.237634978241E+00
  2.418281790620E+00  2.610774756670E+00  2.815446975989E+00  3.032565922775E+00
  3.262318790118E+00  3.504796440406E+00  3.759976028665E+00  4.027702421203E+00
  4.166181211178E+00  4.307668598564E+00  4.452099134687E+00  4.599395309959E+00
  4.749466903250E+00  4.902210336169E+00  5.057508036924E+00  5.215227818882E+00
  5.375222279422E+00  5.537328225175E+00  5.701366130200E+00  5.867139634162E+00
  6.034435088008E+00  6.203021155123E+00  6.372648476361E+00  6.543049407732E+00
  6.713937839890E+00  6.885009108840E+00  7.055940007529E+00  7.226388908113E+00
  7.395996004753E+00  7.564383686738E+00  7.731157051568E+00  7.895904567306E+00
  8.058198893055E+00  8.217597865811E+00  8.373645661121E+00  8.525874134012E+00
  8.673804345450E+00  8.816948278220E+00  8.954810744480E+00  9.086891485442E+00
  9.212687461567E+00  9.331695329395E+00  9.443414098690E+00  9.547347960872E+00
  9.643009276912E+00  9.729921709842E+00  9.807623483960E+00  9.875670749580E+00
  9.933641029007E+00  9.981136716170E+00  1.001778859924E+01  1.004325937257E+01
  1.005724710153E+01  1.005948860128E+01  1.004976268847E+01  1.002789326306E+01
  9.993752176501E+00  9.947261841668E+00  9.888397540344E+00  9.817189384747E+00
  9.733723891301E+00  9.638145127353E+00  9.530655394935E+00  9.411515419892E+00
  9.281044019869E+00  9.139617230603E+00  8.987666876773E+00  8.825678581070E+00
  8.654189213321E+00  8.473783789962E+00  8.285091843091E+00  8.088783287304E+00
  7.885563821508E+00  7.676169911571E+00  7.461363407948E+00  7.241925859913E+00
  7.018652594705E+00  6.792346635415E+00  6.563812535686E+00  6.333850212126E+00
  6.103248856555E+00  5.872781009841E+00  5.643196876948E+00  5.415218959086E+00
  5.189537073438E+00  4.966803824040E+00  4.747630579121E+00  4.532584000738E+00
  4.322183162228E+00  4.116897277903E+00  3.917144058059E+00  3.723288690842E+00
  3.535643441283E+00  3.354467847078E+00  3.179969480718E+00  3.012305237299E+00
  2.851583106971E+00  2.697864369238E+00  2.551166158239E+00  2.411464335644E+00
  2.278696608609E+00  2.152765830011E+00  2.033543419612E+00  1.920872847536E+00
  1.814573125366E+00  1.714442255025E+00  1.620260591286E+00  1.531794079965E+00
  1.448797340384E+00  1.371016567394E+00  1.298192234839E+00  1.230061588722E+00
  1.166360924266E+00  1.106827646476E+00  1.051202118531E+00  9.992293063151E-01
  9.506602305140E-01  9.052532399830E-01  8.627751213614E-01  8.230020603007E-01
  7.857204690592E-01  7.507276936687E-01  7.178326114153E-01  6.868561260705E-01
  6.576315642532E-01  6.300049716725E-01  6.038353029876E-01  5.789944939173E-01
  5.553673993689E-01  5.328515770926E-01  5.113568935169E-01  4.908049235625E-01
  4.711281239726E-01  4.522687610377E-01  4.341774479845E-01  4.168117737679E-01
  4.001340805313E-01  3.841097920964E-01  3.687067849057E-01  3.538951309814E-01
  3.396468775043E-01  3.259358310277E-01  3.127373595942E-01  3.000282282535E-01
  2.877864858765E-01  2.759914195679E-01  2.646235606584E-01  2.536646593457E-01
  2.430976004206E-01  2.329063511792E-01  2.230758956916E-01  2.135921725538E-01
  2.044420126810E-01  1.956130846106E-01  1.870938288512E-01  1.788734136446E-01
  1.709416845633E-01  1.632891039958E-01  1.559066879003E-01  1.487859747337E-01
  1.419189744984E-01  1.352981306835E-01  1.289162805619E-01  1.227666184845E-01
  1.168426612382E-01  1.111382156286E-01  1.056473482776E-01  1.003643576102E-01
  9.528374798995E-02  9.040020595403E-02  8.570857848436E-02  8.120385324896E-02
  7.688114074022E-02  7.273565823471E-02  6.876271549692E-02  6.495770214889E-02
  6.131607662707E-02  5.783335664933E-02  5.450511111549E-02  5.132695336614E-02
  4.829453572582E-02  4.540354525764E-02  4.264970065701E-02  4.002875021253E-02
  3.753647076161E-02  3.516866756991E-02  3.292117504705E-02  3.078985825233E-02
  2.877061507786E-02  2.685937904773E-02  2.505212264656E-02  2.334486109308E-02
  2.173365647347E-02  2.021462214867E-02  1.878392735064E-02  1.743780188389E-02
  1.617254085154E-02  1.498450932882E-02  1.387014691211E-02  1.282597207700E-02
  1.184858628624E-02  1.093467779523E-02  1.008102511089E-02  9.284500067898E-03
  8.542070494419E-03  7.850802447555E-03  7.207862006705E-03  6.610516620356E-03
  6.056136008707E-03  5.542192630779E-03  5.066261730146E-03  4.626020978209E-03
  4.219249737888E-03  3.843827973836E-03  3.497734837743E-03  3.179046958999E-03
  2.885936472098E-03  2.616668812547E-03  2.369600312960E-03  2.143175630363E-03
  1.935925034679E-03  1.746461586951E-03  1.573478234079E-03  1.415744844947E-03
  1.272105210637E-03  1.141474029202E-03  1.022833893207E-03  9.152322959441E-04
  8.177786700549E-04  7.296414701562E-04  6.500453091209E-04  5.782681558611E-04
  5.136386008550E-04  4.555331942468E-04  4.033738601462E-04  3.566253897371E-04
  3.147930149846E-04  2.774200640712E-04  2.440856991862E-04  2.144027369090E-04
  1.880155511516E-04  1.645980584217E-04  1.438517850266E-04  1.255040157336E-04
  1.093060233160E-04  9.503137833719E-05  8.247433844644E-05  7.144831636601E-05
  6.178442564694E-05  5.333010314768E-05  4.594780705358E-05  3.951378910437E-05
  3.391693953652E-05  2.905770308072E-05  2.484706418659E-05  2.120559948241E-05
  1.806259531998E-05  1.535522810961E-05  1.302780501912E-05  1.103106249835E-05
  9.321519997283E-06  7.860886174520E-06  6.615514842727E-06  5.555907870311E-06
  4.656262252322E-06  3.894058578334E-06  3.249688159105E-06  2.706116125654E-06
  2.248577882208E-06  1.864306376200E-06  1.542287742168E-06  1.273042979835E-06
  1.048433437857E-06  8.614879917152E-07  7.062499251264E-07  5.776416474613E-07
  4.713455033769E-07  3.836990538566E-07  3.116033288240E-07  2.524426694452E-07
  2.040148922704E-07  1.644706167785E-07  1.322607021231E-07  1.060908375221E-07
  8.488242350613E-08  6.773896797542E-08  5.391730164817E-08  4.280299205098E-08
  3.388940379376E-08  2.675991566488E-08  2.107286228611E-08  1.654881993946E-08
  1.295990300385E-08  1.012077952349E-08  7.881152089743E-09  6.119483777514E-09
  4.737778658111E-09  3.657252731818E-09  2.814754292814E-09  2.159813053921E-09
  1.652215100451E-09  1.260016177127E-09  9.579191878519E-10  7.259533353269E-10
  5.484022582184E-10  4.129370316115E-10  3.099171581707E-10  2.318288519049E-10
  1.728351467092E-10  1.284167755578E-10  9.508647695104E-11  7.016249249856E-11
  5.158961423868E-11  3.779828802229E-11  2.759408919132E-11  2.007128961312E-11
  1.454558419732E-11  1.050183171192E-11  7.553655649748E-12  5.412363539583E-12
</data>
</radfunc>
</valence-charge>
<pseudocore-charge matching-radius="0.698910254510"
 number-of-continuous-derivatives="2">
<annotation model-core-charge="Three-parameter Martins fit" />
<radfunc>
<data>
  5.065927608409E+01  5.065793497326E+01  5.065387153010E+01  5.064717242067E+01
  5.063769651823E+01  5.062536400087E+01  5.060986298687E+01  5.059080956016E+01
  5.056905642174E+01  5.054333851418E+01  5.051397851194E+01  5.048168958615E+01
  5.044759546316E+01  5.040694518457E+01  5.036592998895E+01  5.031823065139E+01
  5.027258947821E+01  5.022081835076E+01  5.016208715815E+01  5.009545150837E+01
  5.003573430379E+01  4.996965507950E+01  4.989652782213E+01  4.981559087666E+01
  4.972599829873E+01  4.965256201966E+01  4.957329571610E+01  4.948772874024E+01
  4.939535138076E+01  4.929561149851E+01  4.918791086504E+01  4.907160117944E+01
  4.894597973794E+01  4.881028472983E+01  4.866369013313E+01  4.850530018376E+01
  4.839267747089E+01  4.827407443649E+01  4.814916609297E+01  4.801760937711E+01
  4.787904215777E+01  4.773308219930E+01  4.757932608093E+01  4.741734807330E+01
  4.724669897424E+01  4.706690490638E+01  4.687746608102E+01  4.667785553335E+01
  4.646751783638E+01  4.624586780260E+01  4.601228918486E+01  4.576613339072E+01
  4.550671822781E+01  4.523332670157E+01  4.494520589120E+01  4.464156593489E+01
  4.432157916134E+01  4.398437941165E+01  4.362906160332E+01  4.325468159763E+01
  4.286025644143E+01  4.244476506636E+01  4.200714954151E+01  4.154631698964E+01
  4.130684389637E+01  4.106114229361E+01  4.080906710094E+01  4.055047173654E+01
  4.028520829364E+01  4.001312773840E+01  3.973408013095E+01  3.944791487119E+01
  3.915448097120E+01  3.885362735611E+01  3.854520319538E+01  3.822905826657E+01
  3.790504335359E+01  3.757301068173E+01  3.723281439160E+01  3.688431105426E+01
  3.652736022984E+01  3.616182507206E+01  3.578757298083E+01  3.540447630537E+01
  3.501241310003E+01  3.461126793505E+01  3.420093276438E+01  3.378130785241E+01
  3.335230276155E+01  3.291383740200E+01  3.246584314520E+01  3.200826400164E+01
  3.154105786373E+01  3.106419781367E+01  3.057767349574E+01  3.008149255187E+01
  2.957568211854E+01  2.906029038219E+01  2.853538818928E+01  2.800107070629E+01
  2.745745912348E+01  2.690470239494E+01  2.634297900614E+01  2.577249875831E+01
  2.519350455750E+01  2.460627419392E+01  2.401112209545E+01  2.340840103691E+01
  2.279859878264E+01  2.218263251211E+01  2.156157205210E+01  2.093653386708E+01
  2.030866805223E+01  1.967914613301E+01  1.904914969214E+01  1.841985983760E+01
  1.779244751898E+01  1.716806469309E+01  1.654783633400E+01  1.593285327711E+01
  1.532416588176E+01  1.472277849246E+01  1.412964467449E+01  1.354566319601E+01
  1.297167472575E+01  1.240845921241E+01  1.185673390970E+01  1.131715200927E+01
  1.079030184197E+01  1.027670660749E+01  9.776824591109E+00  9.291049826669E+00
  8.819713164485E+00  8.363083703637E+00  7.921370548543E+00  7.494724850760E+00
  7.083242098054E+00  6.686964614163E+00  6.305884234110E+00  5.939945121955E+00
  5.589046698733E+00  5.253046651438E+00  4.931763994890E+00  4.624982160697E+00
  4.332452089456E+00  4.053895304348E+00  3.789006946298E+00  3.537458752824E+00
  3.298901964644E+00  3.072970146012E+00  2.859281906531E+00  2.657443513995E+00
  2.467051389419E+00  2.287694477159E+00  2.118956484441E+00  1.960417985560E+00
  1.811658388468E+00  1.672257761577E+00  1.541798520293E+00  1.419866973682E+00
  1.306054732677E+00  1.199959982037E+00  1.101188619086E+00  1.009355262900E+00
  9.240841382363E-01  8.450098390008E-01  7.717779764890E-01  7.040457180108E-01
  6.414822217897E-01  5.837689742556E-01  5.306000360118E-01  4.816822028539E-01
  4.367350882593E-01  3.954911337551E-01  3.576955535108E-01  3.231062193966E-01
  2.914934925987E-01  2.626400077024E-01  2.363404149370E-01  2.124010860319E-01
  1.906397888711E-01  1.708853358473E-01  1.529772105211E-01  1.367651768868E-01
  1.221088752339E-01  1.088774082881E-01  9.694892100731E-02  8.621017711042E-02
  7.655613512927E-02  6.788952649485E-02  6.012043790655E-02  5.316589998151E-02
  4.694948394464E-02  4.140090789558E-02  3.645565397799E-02  3.205459757670E-02
  2.814364948022E-02  2.467341176821E-02  2.159884801623E-02  1.887896825320E-02
  1.647652896039E-02  1.435774826553E-02  1.249203636114E-02  1.085174106419E-02
  9.411908333372E-03  8.150057472160E-03  7.045970669649E-03  6.081496466321E-03
  5.240366678781E-03  4.508026274611E-03  3.871475655558E-03  3.319124783239E-03
  2.840658565572E-03  2.426912913296E-03  2.069760873407E-03  1.762008249152E-03
  1.497298123748E-03  1.270023716379E-03  1.075249013646E-03  9.086366369807E-04
  7.663824259025E-04  6.451562380699E-04  5.420484893589E-04  4.545219803149E-04
  3.803685789994E-04  3.176703541643E-04  2.647647766075E-04  2.202136302841E-04
  1.827752980948E-04  1.513801100784E-04  1.251084638976E-04  1.031714489077E-04
  8.489372565676E-05  6.969843232955E-05  5.709390835592E-05  4.666204313678E-05
  3.804807457211E-05  3.095167780351E-05  2.511919930519E-05  2.033690519375E-05
  1.642512538928E-05  1.323318707846E-05  1.063504183846E-05  8.525500807991E-06
  6.817001483764E-06  5.436838116289E-06  4.324795321028E-06  3.431131456340E-06
  2.714864591513E-06  2.142319542615E-06  1.685899534944E-06  1.323050602237E-06
  1.035390896630E-06  8.079807004069E-07  6.287121396810E-07  4.878004382106E-07
  3.773610515066E-07  2.910592198590E-07  2.238204045030E-07  1.715917521908E-07
  1.311461961576E-07  9.992206997655E-08  7.589220717123E-08  5.745744382411E-08
  4.336025205157E-08  3.261492562898E-08  2.445133009727E-08  1.826973168202E-08
  1.360464418645E-08  1.009599123381E-08  7.466182166953E-09  5.501951784724E-09
  4.040024113285E-09  2.955834868921E-09  2.154691634672E-09  1.564869778073E-09
  1.132239855974E-09  8.161021788945E-10  5.859693237575E-10  4.190902239532E-10
  2.985521725394E-10  2.118314522537E-10  1.496908669457E-10  1.053444544223E-10
  7.382715795269E-11  5.152108851858E-11  3.580093459276E-11  2.476965404081E-11
  1.706228910856E-11  1.170096609598E-11  7.988187706096E-12  5.428648537078E-12
  3.672203019144E-12  2.472449724121E-12  1.656792731585E-12  1.104899247020E-12
  7.332711201926E-13  4.842473667642E-13  3.182027073218E-13  2.080402029292E-13
  1.353225230817E-13  8.756784964521E-14  5.636936678205E-14  3.609419129709E-14
  2.298786804591E-14  1.456124590522E-14  9.172923643403E-15  5.746415902831E-15
  3.579618002659E-15  2.217158061190E-15  1.365358279577E-15  8.359030685573E-16
  5.087371990853E-16  3.077711873449E-16  1.850663903975E-16  1.106012767221E-16
  6.568908240096E-17  3.876982176257E-17  2.273676385339E-17  1.324841763136E-17
  7.669476797160E-18  4.410616185592E-18  2.519588374542E-18  1.429622198617E-18
  8.056352101430E-19  4.508631251275E-19  2.505551357220E-19  1.382537549937E-19
  7.574044278758E-20  4.119246482156E-20  2.223862958682E-20  1.191679125950E-20
  6.337704320580E-21  3.344919688794E-21  1.751780649170E-21  9.102753158574E-22
  4.692702137806E-22  2.399871695004E-22  1.217376612024E-22  6.124777428975E-23
  3.055906537538E-23  1.511922843562E-23  7.416753223248E-24  3.607006488518E-24
  1.738931933657E-24  8.309480757053E-25  3.935258956759E-25  1.846854790129E-25
  8.588225861889E-26  3.956727038623E-26  1.805845874398E-26  8.163692399154E-27
  3.655129042758E-27  1.620604560243E-27  7.114709060109E-28  3.092358345631E-28
  1.330519496992E-28  5.666265847007E-29  2.388150956256E-29  9.960013017619E-30
  4.109933913895E-30  1.677758280053E-30  6.774631754408E-31  2.705485337319E-31
  1.068436232776E-31  4.171920354891E-32  1.610448051784E-32  6.144964363677E-33
  2.317351561245E-33  8.635779721713E-34  3.179689016634E-34  1.156584944626E-34
  4.155421389467E-35  1.474457625610E-35  5.166109227597E-36  1.787070053658E-36
</data>
</radfunc>
</pseudocore-charge>
<semilocal-potentials set="scalar_relativistic">
<slps n="4" l="s" rc="2.23526728559" flavor="Troullier-Martins">
<radfunc>
<data>
 -3.384362055134E+00 -3.384375444445E+00 -3.384416004883E+00 -3.384482847837E+00
 -3.384577341535E+00 -3.384700223070E+00 -3.384854516940E+00 -3.385043926955E+00
 -3.385259843300E+00 -3.385514652722E+00 -3.385804931449E+00 -3.386123401065E+00
 -3.386458793098E+00 -3.386857480078E+00 -3.387258406920E+00 -3.387722957638E+00
 -3.388165716004E+00 -3.388665845334E+00 -3.389230482558E+00 -3.389867555477E+00
 -3.390435233695E+00 -3.391059770395E+00 -3.391746445004E+00 -3.392500921632E+00
 -3.393329249649E+00 -3.394002813083E+00 -3.394724370987E+00 -3.395496875863E+00
 -3.396323377975E+00 -3.397207013024E+00 -3.398150986625E+00 -3.399158555308E+00
 -3.400233003849E+00 -3.401377618815E+00 -3.402595658300E+00 -3.403890318029E+00
 -3.404797525558E+00 -3.405741050067E+00 -3.406721743112E+00 -3.407740417546E+00
 -3.408797841810E+00 -3.409894734220E+00 -3.411031757340E+00 -3.412209512500E+00
 -3.413428534565E+00 -3.414689286997E+00 -3.415992157318E+00 -3.417337452999E+00
 -3.418725397838E+00 -3.420156128828E+00 -3.421629693493E+00 -3.423146047612E+00
 -3.424705053194E+00 -3.426306476428E+00 -3.427949985261E+00 -3.429635145999E+00
 -3.431361418154E+00 -3.433128146390E+00 -3.434934548050E+00 -3.436779694265E+00
 -3.438662482055E+00 -3.440581594312E+00 -3.442535443956E+00 -3.444522098290E+00
 -3.445527004832E+00 -3.446539179634E+00 -3.447558235258E+00 -3.448583739147E+00
 -3.449615208169E+00 -3.450652102807E+00 -3.451693821061E+00 -3.452739692179E+00
 -3.453788970381E+00 -3.454840828760E+00 -3.455894353652E+00 -3.456948539766E+00
 -3.458002286508E+00 -3.459054395954E+00 -3.460103573042E+00 -3.461148428654E+00
 -3.462187486305E+00 -3.463219193304E+00 -3.464241937292E+00 -3.465254069154E+00
 -3.466253933350E+00 -3.467239906749E+00 -3.468210447033E+00 -3.469164151704E+00
 -3.470099828622E+00 -3.471016578852E+00 -3.471913892376E+00 -3.472791756931E+00
 -3.473650779862E+00 -3.474492322463E+00 -3.475318645741E+00 -3.476133066019E+00
 -3.476940118197E+00 -3.477745723878E+00 -3.478557361135E+00 -3.479384229924E+00
 -3.480237432638E+00 -3.481129999433E+00 -3.482077577163E+00 -3.483097275303E+00
 -3.484204997884E+00 -3.485450380810E+00 -3.486769816596E+00 -3.488443817885E+00
 -3.490939143897E+00 -3.493996992913E+00 -3.497383129985E+00 -3.501180258129E+00
 -3.505372774424E+00 -3.509966571108E+00 -3.514966662159E+00 -3.520376984270E+00
 -3.526202620332E+00 -3.532449426939E+00 -3.539124349270E+00 -3.546235519385E+00
 -3.553792314193E+00 -3.561805356449E+00 -3.570286466965E+00 -3.579248573689E+00
 -3.588705582858E+00 -3.598672216828E+00 -3.609163822611E+00 -3.620196154628E+00
 -3.631785134732E+00 -3.643946592183E+00 -3.656695985941E+00 -3.670048111444E+00
 -3.684016793848E+00 -3.698614569674E+00 -3.713852358642E+00 -3.729739127902E+00
 -3.746281549829E+00 -3.763483656937E+00 -3.781346494858E+00 -3.799867775114E+00
 -3.819041533450E+00 -3.838857793277E+00 -3.859302238093E+00 -3.880355897277E+00
 -3.901994847090E+00 -3.924189931074E+00 -3.946906502912E+00 -3.970104195141E+00
 -3.993736716706E+00 -4.017751682276E+00 -4.042090475543E+00 -4.066688148179E+00
 -4.091473357349E+00 -4.116368339565E+00 -4.141288922501E+00 -4.166144577302E+00
 -4.190838505270E+00 -4.215267760297E+00 -4.239323406390E+00 -4.262890706670E+00
 -4.285849343389E+00 -4.308073667098E+00 -4.329432974177E+00 -4.349791812756E+00
 -4.369010318649E+00 -4.386944585576E+00 -4.403447078043E+00 -4.418367101458E+00
 -4.431551352848E+00 -4.442844587187E+00 -4.452090448770E+00 -4.459132532878E+00
 -4.463815757939E+00 -4.465988138274E+00 -4.465503047051E+00 -4.462222041946E+00
 -4.456018287294E+00 -4.446780543758E+00 -4.434417613264E+00 -4.418863032844E+00
 -4.400079722648E+00 -4.378064230074E+00 -4.352850191086E+00 -4.324510660311E+00
 -4.293159036518E+00 -4.258948442762E+00 -4.222069324429E+00 -4.182746353152E+00
 -4.141229773326E+00 -4.097798767289E+00 -4.052728707733E+00 -4.006314270504E+00
 -3.958868128535E+00 -3.910699377934E+00 -3.862182373962E+00 -3.813671585397E+00
 -3.765470862066E+00 -3.717853609722E+00 -3.671006366941E+00 -3.625019673560E+00
 -3.579831980546E+00 -3.535258532354E+00 -3.491256893988E+00 -3.447812688916E+00
 -3.404914080465E+00 -3.362558262407E+00 -3.320735161322E+00 -3.279438179184E+00
 -3.238659832679E+00 -3.198393064531E+00 -3.158630925682E+00 -3.119341484661E+00
 -3.080553379923E+00 -3.042257038142E+00 -3.004443822334E+00 -2.967105827674E+00
 -2.930235723388E+00 -2.893826630743E+00 -2.857872029212E+00 -2.822365684558E+00