As    ONCVPSP  r_core=  1.85  1.70  2.16
     33.0000      5.0000      150709    zatom,zion,pspd
     8      11   2     4   600     0    pspcod,pspxc,lmax,lloc,mmax,r2well
  5.99000000  0.40000000  0.00000000    rchrg fchrg qchrg
     2     2     2     0     0    nproj
     1                 extension_switch
   0                         7.7823932101558D+00  8.0446201688758D-01
     1  0.0000000000000D+00  2.5893159838475D-10 -9.6996990994747D-10
     2  1.0000000000000D-02  3.2123117065610D-02 -7.9145826192593D-03
     3  2.0000000000000D-02  6.4265400464273D-02 -1.5937599757754D-02
     4  3.0000000000000D-02  9.6445521430447D-02 -2.4175780304862D-02
     5  4.0000000000000D-02  1.2868116679278D-01 -3.2732462785466D-02
     6  5.0000000000000D-02  1.6098856118304D-01 -4.1705952165879D-02
     7  6.0000000000000D-02  1.9338200635336D-01 -5.1187938348963D-02
     8  7.0000000000000D-02  2.2587344299715D-01 -6.1261995769273D-02
     9  8.0000000000000D-02  2.5847204021007D-01 -7.2002182529119D-02
    10  9.0000000000000D-02  2.9118381740947D-01 -8.3471756325720D-02
    11  1.0000000000000D-01  3.2401130315718D-01 -9.5722023022364D-02
    12  1.1000000000000D-01  3.5695323490643D-01 -1.0879133212923D-01
    13  1.2000000000000D-01  3.9000430322266D-01 -1.2270423170120D-01
    14  1.3000000000000D-01  4.2315494351708D-01 -1.3747079325141D-01
    15  1.4000000000000D-01  4.5639117778557D-01 -1.5308611524329D-01
    16  1.5000000000000D-01  4.8969450827134D-01 -1.6953001158437D-01
    17  1.6000000000000D-01  5.2304186437315D-01 -1.8676688932819D-01
    18  1.7000000000000D-01  5.5640560351022D-01 -2.0474581752196D-01
    19  1.8000000000000D-01  5.8975356603571D-01 -2.2340078684476D-01
    20  1.9000000000000D-01  6.2304918367164D-01 -2.4265115739116D-01
    21  2.0000000000000D-01  6.5625164032476D-01 -2.6240228969572D-01
    22  2.1000000000000D-01  6.8931608354406D-01 -2.8254635189126D-01
    23  2.2000000000000D-01  7.2219388430197D-01 -3.0296329377580D-01
    24  2.3000000000000D-01  7.5483294223006D-01 -3.2352197655288D-01
    25  2.4000000000000D-01  7.8717803292278D-01 -3.4408144513440D-01
    26  2.5000000000000D-01  8.1917119344492D-01 -3.6449232817386D-01
    27  2.6000000000000D-01  8.5075214174626D-01 -3.8459834945409D-01
    28  2.7000000000000D-01  8.8185872530479D-01 -4.0423793290424D-01
    29  2.8000000000000D-01  9.1242739399242D-01 -4.2324588238310D-01
    30  2.9000000000000D-01  9.4239369188848D-01 -4.4145511645322D-01
    31  3.0000000000000D-01  9.7169276255897D-01 -4.5869843769418D-01
    32  3.1000000000000D-01  1.0002598621765D+00 -4.7481031567209D-01
    33  3.2000000000000D-01  1.0280308747782D+00 -4.8962866250075D-01
    34  3.3000000000000D-01  1.0549428239481D+00 -5.0299658000191D-01
    35  3.4000000000000D-01  1.0809343752657D+00 -5.1476405779503D-01
    36  3.5000000000000D-01  1.1059463239852D+00 -5.2478960221933D-01
    37  3.6000000000000D-01  1.1299220625935D+00 -5.3294177680488D-01
    38  3.7000000000000D-01  1.1528080231464D+00 -5.3910063605585D-01
    39  3.8000000000000D-01  1.1745540895877D+00 -5.4315903557600D-01
    40  3.9000000000000D-01  1.1951139756198D+00 -5.4502380303861D-01
    41  4.0000000000000D-01  1.2144455641092D+00 -5.4461675616289D-01
    42  4.1000000000000D-01  1.2325112044708D+00 -5.4187555568742D-01
    43  4.2000000000000D-01  1.2492779649779D+00 -5.3675438330562D-01
    44  4.3000000000000D-01  1.2647178374783D+00 -5.2922443662587D-01
    45  4.4000000000000D-01  1.2788078925682D+00 -5.1927423541429D-01
    46  4.5000000000000D-01  1.2915303838564D+00 -5.0690973564494D-01
    47  4.6000000000000D-01  1.3028728005590D+00 -4.9215425019294D-01
    48  4.7000000000000D-01  1.3128278682707D+00 -4.7504817733387D-01
    49  4.8000000000000D-01  1.3213934983735D+00 -4.5564854052772D-01
    50  4.9000000000000D-01  1.3285726871427D+00 -4.3402834524215D-01
    51  5.0000000000000D-01  1.3343733662045D+00 -4.1027576077759D-01
    52  5.1000000000000D-01  1.3388082065650D+00 -3.8449313717142D-01
    53  5.2000000000000D-01  1.3418943789734D+00 -3.5679586925218D-01
    54  5.3000000000000D-01  1.3436532738884D+00 -3.2731112176483D-01
    55  5.4000000000000D-01  1.3441101847822D+00 -2.9617643116915D-01
    56  5.5000000000000D-01  1.3432939589410D+00 -2.6353820121009D-01
    57  5.6000000000000D-01  1.3412366202843D+00 -2.2955011064360D-01
    58  5.7000000000000D-01  1.3379729690458D+00 -1.9437145256937D-01
    59  5.8000000000000D-01  1.3335401634105D+00 -1.5816542564885D-01
    60  5.9000000000000D-01  1.3279772883951D+00 -1.2109739807012D-01
    61  6.0000000000000D-01  1.3213249173894D+00 -8.3333165448314D-02
    62  6.1000000000000D-01  1.3136246718371D+00 -4.5037223919286D-02
    63  6.2000000000000D-01  1.3049187845278D+00 -6.3710794924265D-03
    64  6.3000000000000D-01  1.2952496719052D+00  3.2508385723485D-02
    65  6.4000000000000D-01  1.2846595206527D+00  7.1450470509943D-02
    66  6.5000000000000D-01  1.2731898936206D+00  1.1031211578483D-01
    67  6.6000000000000D-01  1.2608813598910D+00  1.4895925233330D-01
    68  6.7000000000000D-01  1.2477731534555D+00  1.8726801865444D-01
    69  6.8000000000000D-01  1.2339028646034D+00  2.2512583417009D-01
    70  6.9000000000000D-01  1.2193061676865D+00  2.6243231483818D-01
    71  7.0000000000000D-01  1.2040165884563D+00  2.9910002017683D-01
    72  7.1000000000000D-01  1.1880653136552D+00  3.3505502279704D-01
    73  7.2000000000000D-01  1.1714810449949D+00  3.7023729377153D-01
    74  7.3000000000000D-01  1.1542898990858D+00  4.0460089946220D-01
    75  7.4000000000000D-01  1.1365153542845D+00  4.3811400779598D-01
    76  7.5000000000000D-01  1.1181782448238D+00  4.7075870437650D-01
    77  7.6000000000000D-01  1.0992968019794D+00  5.0253062121068D-01
    78  7.7000000000000D-01  1.0798867414174D+00  5.3343838320398D-01
    79  7.8000000000000D-01  1.0599613952725D+00  5.6350287988957D-01
    80  7.9000000000000D-01  1.0395318869210D+00  5.9275637208160D-01
    81  8.0000000000000D-01  1.0186073458622D+00  6.2124144525688D-01
    82  8.1000000000000D-01  9.9719515959237D-01  6.4900982344242D-01
    83  8.2000000000000D-01  9.7530125887019D-01  6.7612105919405D-01
    84  8.3000000000000D-01  9.5293043232972D-01  7.0264111687205D-01
    85  8.4000000000000D-01  9.3008666600200D-01  7.2864086783094D-01
    86  8.5000000000000D-01  9.0677350296789D-01  7.5419451732551D-01
    87  8.6000000000000D-01  8.8299441808398D-01  7.7937798387748D-01
    88  8.7000000000000D-01  8.5875320250521D-01  8.0426725253411D-01
    89  8.8000000000000D-01  8.3405435257465D-01  8.2893672387305D-01
    90  8.9000000000000D-01  8.0890345756568D-01  8.5345758075848D-01
    91  9.0000000000000D-01  7.8330758074414D-01  8.7789619473172D-01
    92  9.1000000000000D-01  7.5727562827035D-01  9.0231259352277D-01
    93  9.2000000000000D-01  7.3081870058091D-01  9.2675901050265D-01
    94  9.3000000000000D-01  7.0395042107819D-01  9.5127853596747D-01
    95  9.4000000000000D-01  6.7668723720816D-01  9.7590388896244D-01
    96  9.5000000000000D-01  6.4904868932236D-01  1.0006563269327D+00
    97  9.6000000000000D-01  6.2105764309278D-01  1.0255447088485D+00
    98  9.7000000000000D-01  5.9274048168265D-01  1.0505647255767D+00
    99  9.8000000000000D-01  5.6412725433969D-01  1.0756983093005D+00
   100  9.9000000000000D-01  5.3525177861424D-01  1.1009132315385D+00
   101  1.0000000000000D+00  5.0615169395497D-01  1.1261628970269D+00
   102  1.0100000000000D+00  4.7686846502434D-01  1.1513863383064D+00
   103  1.0200000000000D+00  4.4744733368892D-01  1.1765084133553D+00
   104  1.0300000000000D+00  4.1793721926601D-01  1.2014402060765D+00
   105  1.0400000000000D+00  3.8839056726147D-01  1.2260796268339D+00
   106  1.0500000000000D+00  3.5886314742237D-01  1.2503122078866D+00
   107  1.0600000000000D+00  3.2941380262578D-01  1.2740120858265D+00
   108  1.0700000000000D+00  3.0010415069049D-01  1.2970431609182D+00
   109  1.0800000000000D+00  2.7099824180721D-01  1.3192604208882D+00
   110  1.0900000000000D+00  2.4216217487082D-01  1.3405114144738D+00
   111  1.1000000000000D+00  2.1366367644799D-01  1.3606378583398D+00
   112  1.1100000000000D+00  1.8557164670447D-01  1.3794773587839D+00
   113  1.1200000000000D+00  1.5795567696949D-01  1.3968652283784D+00
   114  1.1300000000000D+00  1.3088554403971D-01  1.4126363761983D+00
   115  1.1400000000000D+00  1.0443068659796D-01  1.4266272493552D+00
   116  1.1500000000000D+00  7.8659669437405D-02  1.4386778025366D+00
   117  1.1600000000000D+00  5.3639641341115D-02  1.4486334718197D+00
   118  1.1700000000000D+00  2.9435792578597D-02  1.4563471288429D+00
   119  1.1800000000000D+00  6.1108180502747D-03  1.4616809913023D+00
   120  1.1900000000000D+00 -1.6275607900765D-02  1.4645084661263D+00
   121  1.2000000000000D+00 -3.7667339115739D-02  1.4647159023877D+00
   122  1.2100000000000D+00 -5.8012241957743D-02  1.4622042319302D+00
   123  1.2200000000000D+00 -7.7262650769547D-02  1.4568904764462D+00
   124  1.2300000000000D+00 -9.5375789278905D-02  1.4487091017440D+00
   125  1.2400000000000D+00 -1.1231415319123D-01  1.4376132018025D+00
   126  1.2500000000000D+00 -1.2804584928686D-01  1.4235754956310D+00
   127  1.2600000000000D+00 -1.4254488723354D-01  1.4065891239436D+00
   128  1.2700000000000D+00 -1.5579142076775D-01  1.3866682345300D+00
   129  1.2800000000000D+00 -1.6777193500925D-01  1.3638483457480D+00
   130  1.2900000000000D+00 -1.7847937786904D-01  1.3381864827035D+00
   131  1.3000000000000D+00 -1.8791323404551D-01  1.3097610828676D+00
   132  1.3100000000000D+00 -1.9607954004263D-01  1.2786716676978D+00
   133  1.3200000000000D+00 -2.0299084031627D-01  1.2450382837976D+00
   134  1.3300000000000D+00 -2.0866608486477D-01  1.2090007179174D+00
   135  1.3400000000000D+00 -2.1313046863951D-01  1.1707174904491D+00
   136  1.3500000000000D+00 -2.1641521507661D-01  1.1303646398222D+00
   137  1.3600000000000D+00 -2.1855730559115D-01  1.0881343082817D+00
   138  1.3700000000000D+00 -2.1959915766877D-01  1.0442331428199D+00
   139  1.3800000000000D+00 -2.1958825555498D-01  9.9888053021370D-01
   140  1.3900000000000D+00 -2.1857673670010D-01  9.5230668191781D-01
   141  1.4000000000000D+00 -2.1662093885337D-01  9.0475059123429D-01
   142  1.4100000000000D+00 -2.1378091255782D-01  8.5645788432939D-01
   143  1.4200000000000D+00 -2.1011990384276D-01  8.0767858722157D-01
   144  1.4300000000000D+00 -2.0570381317281D-01  7.5866483483862D-01
   145  1.4400000000000D+00 -2.0060063581717D-01  7.0966854537369D-01
   146  1.4500000000000D+00 -1.9487988994737D-01  6.6093908687008D-01
   147  1.4600000000000D+00 -1.8861203813548D-01  6.1272096013003D-01
   148  1.4700000000000D+00 -1.8186790859841D-01  5.6525152533119D-01
   149  1.4800000000000D+00 -1.7471812172260D-01  5.1875879445194D-01
   150  1.4900000000000D+00 -1.6723252830280D-01  4.7345931719582D-01
   151  1.5000000000000D+00 -1.5947966462628D-01  4.2955618016577D-01
   152  1.5100000000000D+00 -1.5152623015831D-01  3.8723714309746D-01
   153  1.5200000000000D+00 -1.4343659310260D-01  3.4667293271875D-01
   154  1.5300000000000D+00 -1.3527232778348D-01  3.0801570893560D-01
   155  1.5400000000000D+00 -1.2709178983745D-01  2.7139772730800D-01
   156  1.5500000000000D+00 -1.1894973032170D-01  2.3693019891033D-01
   157  1.5600000000000D+00 -1.1089695577155D-01  2.0470237652438D-01
   158  1.5700000000000D+00 -1.0298003335579D-01  1.7478086076904D-01
   159  1.5800000000000D+00 -9.5241046486316D-02  1.4720914217580D-01
   160  1.5900000000000D+00 -8.7717425020539D-02  1.2200752495494D-01
   161  1.6000000000000D+00 -8.0441716605724D-02  9.9172642427366D-02
   162  1.6100000000000D+00 -7.3441553852570D-02  7.8678038353844D-02
   163  1.6200000000000D+00 -6.6739894109501D-02  6.0476325614366D-02
   164  1.6300000000000D+00 -6.0355250759410D-02  4.4501100382317D-02
   165  1.6400000000000D+00 -5.4302062133313D-02  3.0669466243586D-02
   166  1.6500000000000D+00 -4.8590938863517D-02  1.8883778626985D-02
   167  1.6600000000000D+00 -4.3228779101886D-02  9.0324922361495D-03
   168  1.6700000000000D+00 -3.8219012842006D-02  9.9173826359345D-04
   169  1.6800000000000D+00 -3.3561876105819D-02 -5.3729607615281D-03
   170  1.6900000000000D+00 -2.9254698286075D-02 -1.0204959103760D-02
   171  1.7000000000000D+00 -2.5292219268387D-02 -1.3654619430763D-02
   172  1.7100000000000D+00 -2.1666922857000D-02 -1.5877389013972D-02
   173  1.7200000000000D+00 -1.8369384606036D-02 -1.7031824799404D-02
   174  1.7300000000000D+00 -1.5388628364620D-02 -1.7277596437373D-02
   175  1.7400000000000D+00 -1.2712486901340D-02 -1.6773489182038D-02
   176  1.7500000000000D+00 -1.0327960641059D-02 -1.5675435593655D-02
   177  1.7600000000000D+00 -8.2215704084093D-03 -1.4134595565922D-02
   178  1.7700000000000D+00 -6.3796981571550D-03 -1.2295513235588D-02
   179  1.7800000000000D+00 -4.7889115226143D-03 -1.0294370757846D-02
   180  1.7900000000000D+00 -3.4363818370130D-03 -8.2588541336652D-03
   181  1.8000000000000D+00 -2.3098978379526D-03 -6.3032205501967D-03
   182  1.8100000000000D+00 -1.3977367937019D-03 -4.5167734452467D-03
   183  1.8200000000000D+00 -6.9067612030214D-04 -2.9826129512309D-03
   184  1.8300000000000D+00 -1.8009147879051D-04 -1.8440003367025D-03
   185  1.8400000000000D+00  1.4842658146847D-04 -1.1935035461633D-03
   186  1.8500000000000D+00  2.8046918632255D-04 -8.1349892131583D-04
   187  1.8600000000000D+00  2.1470167244395D-04 -4.4665561471955D-04
   188  1.8700000000000D+00  6.2353167046172D-05 -1.1234229565269D-04
   189  1.8800000000000D+00 -3.0550535068339D-05  5.1937032197944D-05
   190  1.8900000000000D+00 -2.7213951761348D-05  4.3827270817663D-05
   191  1.9000000000000D+00  3.7923405221587D-06 -7.0245286862916D-06
   192  1.9100000000000D+00  7.6387051686382D-06 -1.3835141779327D-05
   193  1.9200000000000D+00 -2.3772255414070D-08  6.1969442004767D-08
   194  1.9300000000000D+00 -8.0140943136529D-07  2.0891116309339D-06
   195  1.9400000000000D+00 -2.8836088547541D-07  7.5169826580001D-07
   196  1.9500000000000D+00  0.0000000000000D+00  0.0000000000000D+00
   197  1.9600000000000D+00  0.0000000000000D+00  0.0000000000000D+00
   198  1.9700000000000D+00  0.0000000000000D+00  0.0000000000000D+00
   199  1.9800000000000D+00  0.0000000000000D+00  0.0000000000000D+00
   200  1.9900000000000D+00  0.0000000000000D+00  0.0000000000000D+00
   201  2.0000000000000D+00  0.0000000000000D+00  0.0000000000000D+00
   202  2.0100000000000D+00  0.0000000000000D+00  0.0000000000000D+00
   203  2.0200000000000D+00  0.0000000000000D+00  0.0000000000000D+00
   204  2.0300000000000D+00  0.0000000000000D+00  0.0000000000000D+00
   205  2.0400000000000D+00  0.0000000000000D+00  0.0000000000000D+00
   206  2.0500000000000D+00  0.0000000000000D+00  0.0000000000000D+00
   207  2.0600000000000D+00  0.0000000000000D+00  0.0000000000000D+00
   208  2.0700000000000D+00  0.0000000000000D+00  0.0000000000000D+00
   209  2.0800000000000D+00  0.0000000000000D+00  0.0000000000000D+00
   210  2.0900000000000D+00  0.0000000000000D+00  0.0000000000000D+00
   211  2.1000000000000D+00  0.0000000000000D+00  0.0000000000000D+00
   212  2.1100000000000D+00  0.0000000000000D+00  0.0000000000000D+00
   213  2.1200000000000D+00  0.0000000000000D+00  0.0000000000000D+00
   214  2.1300000000000D+00  0.0000000000000D+00  0.0000000000000D+00
   215  2.1400000000000D+00  0.0000000000000D+00  0.0000000000000D+00
   216  2.1500000000000D+00  0.0000000000000D+00  0.0000000000000D+00
   217  2.1600000000000D+00  0.0000000000000D+00  0.0000000000000D+00
   218  2.1700000000000D+00  0.0000000000000D+00  0.0000000000000D+00
   219  2.1800000000000D+00  0.0000000000000D+00  0.0000000000000D+00
   220  2.1900000000000D+00  0.0000000000000D+00  0.0000000000000D+00
   221  2.2000000000000D+00  0.0000000000000D+00  0.0000000000000D+00
   222  2.2100000000000D+00  0.0000000000000D+00  0.0000000000000D+00
   223  2.2200000000000D+00  0.0000000000000D+00  0.0000000000000D+00
   224  2.2300000000000D+00  0.0000000000000D+00  0.0000000000000D+00
   225  2.2400000000000D+00  0.0000000000000D+00  0.0000000000000D+00
   226  2.2500000000000D+00  0.0000000000000D+00  0.0000000000000D+00
   227  2.2600000000000D+00  0.0000000000000D+00  0.0000000000000D+00
   228  2.2700000000000D+00  0.0000000000000D+00  0.0000000000000D+00
   229  2.2800000000000D+00  0.0000000000000D+00  0.0000000000000D+00
   230  2.2900000000000D+00  0.0000000000000D+00  0.0000000000000D+00
   231  2.3000000000000D+00  0.0000000000000D+00  0.0000000000000D+00
   232  2.3100000000000D+00  0.0000000000000D+00  0.0000000000000D+00
   233  2.3200000000000D+00  0.0000000000000D+00  0.0000000000000D+00
   234  2.3300000000000D+00  0.0000000000000D+00  0.0000000000000D+00
   235  2.3400000000000D+00  0.0000000000000D+00  0.0000000000000D+00
   236  2.3500000000000D+00  0.0000000000000D+00  0.0000000000000D+00
   237  2.3600000000000D+00  0.0000000000000D+00  0.0000000000000D+00
   238  2.3700000000000D+00  0.0000000000000D+00  0.0000000000000D+00
   239  2.3800000000000D+00  0.0000000000000D+00  0.0000000000000D+00
   240  2.3900000000000D+00  0.0000000000000D+00  0.0000000000000D+00
   241  2.4000000000000D+00  0.0000000000000D+00  0.0000000000000D+00
   242  2.4100000000000D+00  0.0000000000000D+00  0.0000000000000D+00
   243  2.4200000000000D+00  0.0000000000000D+00  0.0000000000000D+00
   244  2.4300000000000D+00  0.0000000000000D+00  0.0000000000000D+00
   245  2.4400000000000D+00  0.0000000000000D+00  0.0000000000000D+00
   246  2.4500000000000D+00  0.0000000000000D+00  0.0000000000000D+00
   247  2.4600000000000D+00  0.0000000000000D+00  0.0000000000000D+00
   248  2.4700000000000D+00  0.0000000000000D+00  0.0000000000000D+00
   249  2.4800000000000D+00  0.0000000000000D+00  0.0000000000000D+00
   250  2.4900000000000D+00  0.0000000000000D+00  0.0000000000000D+00
   251  2.5000000000000D+00  0.0000000000000D+00  0.0000000000000D+00
   252  2.5100000000000D+00  0.0000000000000D+00  0.0000000000000D+00
   253  2.5200000000000D+00  0.0000000000000D+00  0.0000000000000D+00
   254  2.5300000000000D+00  0.0000000000000D+00  0.0000000000000D+00
   255  2.5400000000000D+00  0.0000000000000D+00  0.0000000000000D+00
   256  2.5500000000000D+00  0.0000000000000D+00  0.0000000000000D+00
   257  2.5600000000000D+00  0.0000000000000D+00  0.0000000000000D+00
   258  2.5700000000000D+00  0.0000000000000D+00  0.0000000000000D+00
   259  2.5800000000000D+00  0.0000000000000D+00  0.0000000000000D+00
   260  2.5900000000000D+00  0.0000000000000D+00  0.0000000000000D+00
   261  2.6000000000000D+00  0.0000000000000D+00  0.0000000000000D+00
   262  2.6100000000000D+00  0.0000000000000D+00  0.0000000000000D+00
   263  2.6200000000000D+00  0.0000000000000D+00  0.0000000000000D+00
   264  2.6300000000000D+00  0.0000000000000D+00  0.0000000000000D+00
   265  2.6400000000000D+00  0.0000000000000D+00  0.0000000000000D+00
   266  2.6500000000000D+00  0.0000000000000D+00  0.0000000000000D+00
   267  2.6600000000000D+00  0.0000000000000D+00  0.0000000000000D+00
   268  2.6700000000000D+00  0.0000000000000D+00  0.0000000000000D+00
   269  2.6800000000000D+00  0.0000000000000D+00  0.0000000000000D+00
   270  2.6900000000000D+00  0.0000000000000D+00  0.0000000000000D+00
   271  2.7000000000000D+00  0.0000000000000D+00  0.0000000000000D+00
   272  2.7100000000000D+00  0.0000000000000D+00  0.0000000000000D+00
   273  2.7200000000000D+00  0.0000000000000D+00  0.0000000000000D+00
   274  2.7300000000000D+00  0.0000000000000D+00  0.0000000000000D+00
   275  2.7400000000000D+00  0.0000000000000D+00  0.0000000000000D+00
   276  2.7500000000000D+00  0.0000000000000D+00  0.0000000000000D+00
   277  2.7600000000000D+00  0.0000000000000D+00  0.0000000000000D+00
   278  2.7700000000000D+00  0.0000000000000D+00  0.0000000000000D+00
   279  2.7800000000000D+00  0.0000000000000D+00  0.0000000000000D+00
   280  2.7900000000000D+00  0.0000000000000D+00  0.0000000000000D+00
   281  2.8000000000000D+00  0.0000000000000D+00  0.0000000000000D+00
   282  2.8100000000000D+00  0.0000000000000D+00  0.0000000000000D+00
   283  2.8200000000000D+00  0.0000000000000D+00  0.0000000000000D+00
   284  2.8300000000000D+00  0.0000000000000D+00  0.0000000000000D+00
   285  2.8400000000000D+00  0.0000000000000D+00  0.0000000000000D+00
   286  2.8500000000000D+00  0.0000000000000D+00  0.0000000000000D+00
   287  2.8600000000000D+00  0.0000000000000D+00  0.0000000000000D+00
   288  2.8700000000000D+00  0.0000000000000D+00  0.0000000000000D+00
   289  2.8800000000000D+00  0.0000000000000D+00  0.0000000000000D+00
   290  2.8900000000000D+00  0.0000000000000D+00  0.0000000000000D+00
   291  2.9000000000000D+00  0.0000000000000D+00  0.0000000000000D+00
   292  2.9100000000000D+00  0.0000000000000D+00  0.0000000000000D+00
   293  2.9200000000000D+00  0.0000000000000D+00  0.0000000000000D+00
   294  2.9300000000000D+00  0.0000000000000D+00  0.0000000000000D+00
   295  2.9400000000000D+00  0.0000000000000D+00  0.0000000000000D+00
   296  2.9500000000000D+00  0.0000000000000D+00  0.0000000000000D+00
   297  2.9600000000000D+00  0.0000000000000D+00  0.0000000000000D+00
   298  2.9700000000000D+00  0.0000000000000D+00  0.0000000000000D+00
   299  2.9800000000000D+00  0.0000000000000D+00  0.0000000000000D+00
   300  2.9900000000000D+00  0.0000000000000D+00  0.0000000000000D+00
   301  3.0000000000000D+00  0.0000000000000D+00  0.0000000000000D+00
   302  3.0100000000000D+00  0.0000000000000D+00  0.0000000000000D+00
   303  3.0200000000000D+00  0.0000000000000D+00  0.0000000000000D+00
   304  3.0300000000000D+00  0.0000000000000D+00  0.0000000000000D+00
   305  3.0400000000000D+00  0.0000000000000D+00  0.0000000000000D+00
   306  3.0500000000000D+00  0.0000000000000D+00  0.0000000000000D+00
   307  3.0600000000000D+00  0.0000000000000D+00  0.0000000000000D+00
   308  3.0700000000000D+00  0.0000000000000D+00  0.0000000000000D+00
   309  3.0800000000000D+00  0.0000000000000D+00  0.0000000000000D+00
   310  3.0900000000000D+00  0.0000000000000D+00  0.0000000000000D+00
   311  3.1000000000000D+00  0.0000000000000D+00  0.0000000000000D+00
   312  3.1100000000000D+00  0.0000000000000D+00  0.0000000000000D+00
   313  3.1200000000000D+00  0.0000000000000D+00  0.0000000000000D+00
   314  3.1300000000000D+00  0.0000000000000D+00  0.0000000000000D+00
   315  3.1400000000000D+00  0.0000000000000D+00  0.0000000000000D+00
   316  3.1500000000000D+00  0.0000000000000D+00  0.0000000000000D+00
   317  3.1600000000000D+00  0.0000000000000D+00  0.0000000000000D+00
   318  3.1700000000000D+00  0.0000000000000D+00  0.0000000000000D+00
   319  3.1800000000000D+00  0.0000000000000D+00  0.0000000000000D+00
   320  3.1900000000000D+00  0.0000000000000D+00  0.0000000000000D+00
   321  3.2000000000000D+00  0.0000000000000D+00  0.0000000000000D+00
   322  3.2100000000000D+00  0.0000000000000D+00  0.0000000000000D+00
   323  3.2200000000000D+00  0.0000000000000D+00  0.0000000000000D+00
   324  3.2300000000000D+00  0.0000000000000D+00  0.0000000000000D+00
   325  3.2400000000000D+00  0.0000000000000D+00  0.0000000000000D+00
   326  3.2500000000000D+00  0.0000000000000D+00  0.0000000000000D+00
   327  3.2600000000000D+00  0.0000000000000D+00  0.0000000000000D+00
   328  3.2700000000000D+00  0.0000000000000D+00  0.0000000000000D+00
   329  3.2800000000000D+00  0.0000000000000D+00  0.0000000000000D+00
   330  3.2900000000000D+00  0.0000000000000D+00  0.0000000000000D+00
   331  3.3000000000000D+00  0.0000000000000D+00  0.0000000000000D+00
   332  3.3100000000000D+00  0.0000000000000D+00  0.0000000000000D+00
   333  3.3200000000000D+00  0.0000000000000D+00  0.0000000000000D+00
   334  3.3300000000000D+00  0.0000000000000D+00  0.0000000000000D+00
   335  3.3400000000000D+00  0.0000000000000D+00  0.0000000000000D+00
   336  3.3500000000000D+00  0.0000000000000D+00  0.0000000000000D+00
   337  3.3600000000000D+00  0.0000000000000D+00  0.0000000000000D+00
   338  3.3700000000000D+00  0.0000000000000D+00  0.0000000000000D+00
   339  3.3800000000000D+00  0.0000000000000D+00  0.0000000000000D+00
   340  3.3900000000000D+00  0.0000000000000D+00  0.0000000000000D+00
   341  3.4000000000000D+00  0.0000000000000D+00  0.0000000000000D+00
   342  3.4100000000000D+00  0.0000000000000D+00  0.0000000000000D+00
   343  3.4200000000000D+00  0.0000000000000D+00  0.0000000000000D+00
   344  3.4300000000000D+00  0.0000000000000D+00  0.0000000000000D+00
   345  3.4400000000000D+00  0.0000000000000D+00  0.0000000000000D+00
   346  3.4500000000000D+00  0.0000000000000D+00  0.0000000000000D+00
   347  3.4600000000000D+00  0.0000000000000D+00  0.0000000000000D+00
   348  3.4700000000000D+00  0.0000000000000D+00  0.0000000000000D+00
   349  3.4800000000000D+00  0.0000000000000D+00  0.0000000000000D+00
   350  3.4900000000000D+00  0.0000000000000D+00  0.0000000000000D+00
   351  3.5000000000000D+00  0.0000000000000D+00  0.0000000000000D+00
   352  3.5100000000000D+00  0.0000000000000D+00  0.0000000000000D+00
   353  3.5200000000000D+00  0.0000000000000D+00  0.0000000000000D+00
   354  3.5300000000000D+00  0.0000000000000D+00  0.0000000000000D+00
   355  3.5400000000000D+00  0.0000000000000D+00  0.0000000000000D+00
   356  3.5500000000000D+00  0.0000000000000D+00  0.0000000000000D+00
   357  3.5600000000000D+00  0.0000000000000D+00  0.0000000000000D+00
   358  3.5700000000000D+00  0.0000000000000D+00  0.0000000000000D+00
   359  3.5800000000000D+00  0.0000000000000D+00  0.0000000000000D+00
   360  3.5900000000000D+00  0.0000000000000D+00  0.0000000000000D+00
   361  3.6000000000000D+00  0.0000000000000D+00  0.0000000000000D+00
   362  3.6100000000000D+00  0.0000000000000D+00  0.0000000000000D+00
   363  3.6200000000000D+00  0.0000000000000D+00  0.0000000000000D+00
   364  3.6300000000000D+00  0.0000000000000D+00  0.0000000000000D+00
   365  3.6400000000000D+00  0.0000000000000D+00  0.0000000000000D+00
   366  3.6500000000000D+00  0.0000000000000D+00  0.0000000000000D+00
   367  3.6600000000000D+00  0.0000000000000D+00  0.0000000000000D+00
   368  3.6700000000000D+00  0.0000000000000D+00  0.0000000000000D+00
   369  3.6800000000000D+00  0.0000000000000D+00  0.0000000000000D+00
   370  3.6900000000000D+00  0.0000000000000D+00  0.0000000000000D+00
   371  3.7000000000000D+00  0.0000000000000D+00  0.0000000000000D+00
   372  3.7100000000000D+00  0.0000000000000D+00  0.0000000000000D+00
   373  3.7200000000000D+00  0.0000000000000D+00  0.0000000000000D+00
   374  3.7300000000000D+00  0.0000000000000D+00  0.0000000000000D+00
   375  3.7400000000000D+00  0.0000000000000D+00  0.0000000000000D+00
   376  3.7500000000000D+00  0.0000000000000D+00  0.0000000000000D+00
   377  3.7600000000000D+00  0.0000000000000D+00  0.0000000000000D+00
   378  3.7700000000000D+00  0.0000000000000D+00  0.0000000000000D+00
   379  3.7800000000000D+00  0.0000000000000D+00  0.0000000000000D+00
   380  3.7900000000000D+00  0.0000000000000D+00  0.0000000000000D+00
   381  3.8000000000000D+00  0.0000000000000D+00  0.0000000000000D+00
   382  3.8100000000000D+00  0.0000000000000D+00  0.0000000000000D+00
   383  3.8200000000000D+00  0.0000000000000D+00  0.0000000000000D+00
   384  3.8300000000000D+00  0.0000000000000D+00  0.0000000000000D+00
   385  3.8400000000000D+00  0.0000000000000D+00  0.0000000000000D+00
   386  3.8500000000000D+00  0.0000000000000D+00  0.0000000000000D+00
   387  3.8600000000000D+00  0.0000000000000D+00  0.0000000000000D+00
   388  3.8700000000000D+00  0.0000000000000D+00  0.0000000000000D+00
   389  3.8800000000000D+00  0.0000000000000D+00  0.0000000000000D+00
   390  3.8900000000000D+00  0.0000000000000D+00  0.0000000000000D+00
   391  3.9000000000000D+00  0.0000000000000D+00  0.0000000000000D+00
   392  3.9100000000000D+00  0.0000000000000D+00  0.0000000000000D+00
   393  3.9200000000000D+00  0.0000000000000D+00  0.0000000000000D+00
   394  3.9300000000000D+00  0.0000000000000D+00  0.0000000000000D+00
   395  3.9400000000000D+00  0.0000000000000D+00  0.0000000000000D+00
   396  3.9500000000000D+00  0.0000000000000D+00  0.0000000000000D+00
   397  3.9600000000000D+00  0.0000000000000D+00  0.0000000000000D+00
   398  3.9700000000000D+00  0.0000000000000D+00  0.0000000000000D+00
   399  3.9800000000000D+00  0.0000000000000D+00  0.0000000000000D+00
   400  3.9900000000000D+00  0.0000000000000D+00  0.0000000000000D+00
   401  4.0000000000000D+00  0.0000000000000D+00  0.0000000000000D+00
   402  4.0100000000000D+00  0.0000000000000D+00  0.0000000000000D+00
   403  4.0200000000000D+00  0.0000000000000D+00  0.0000000000000D+00
   404  4.0300000000000D+00  0.0000000000000D+00  0.0000000000000D+00
   405  4.0400000000000D+00  0.0000000000000D+00  0.0000000000000D+00
   406  4.0500000000000D+00  0.0000000000000D+00  0.0000000000000D+00
   407  4.0600000000000D+00  0.0000000000000D+00  0.0000000000000D+00
   408  4.0700000000000D+00  0.0000000000000D+00  0.0000000000000D+00
   409  4.0800000000000D+00  0.0000000000000D+00  0.0000000000000D+00
   410  4.0900000000000D+00  0.0000000000000D+00  0.0000000000000D+00
   411  4.1000000000000D+00  0.0000000000000D+00  0.0000000000000D+00
   412  4.1100000000000D+00  0.0000000000000D+00  0.0000000000000D+00
   413  4.1200000000000D+00  0.0000000000000D+00  0.0000000000000D+00
   414  4.1300000000000D+00  0.0000000000000D+00  0.0000000000000D+00
   415  4.1400000000000D+00  0.0000000000000D+00  0.0000000000000D+00
   416  4.1500000000000D+00  0.0000000000000D+00  0.0000000000000D+00
   417  4.1600000000000D+00  0.0000000000000D+00  0.0000000000000D+00
   418  4.1700000000000D+00  0.0000000000000D+00  0.0000000000000D+00
   419  4.1800000000000D+00  0.0000000000000D+00  0.0000000000000D+00
   420  4.1900000000000D+00  0.0000000000000D+00  0.0000000000000D+00
   421  4.2000000000000D+00  0.0000000000000D+00  0.0000000000000D+00
   422  4.2100000000000D+00  0.0000000000000D+00  0.0000000000000D+00
   423  4.2200000000000D+00  0.0000000000000D+00  0.0000000000000D+00