As    ONCVPSP-3.3.0  r_core=   1.85233   1.80867   2.40819
     33.0000      5.0000      170607    zatom,zion,pspd
     8      11   2     4   600     0    pspcod,pspxc,lmax,lloc,mmax,r2well
  5.99000000  8.00000000  0.00000000    rchrg fchrg qchrg
     2     3     3     0    nproj
     3     1           extension_switch
     4     4     0    nprojso
   0                         8.9823573850286D-01  8.5467925665542D+00
     1  0.0000000000000D+00  1.9439200249494D-10 -1.7245516126252D-10
     2  1.0000000000000D-02 -2.1100128788712D-02  3.8531027884053D-02
     3  2.0000000000000D-02 -4.2153467437992D-02  7.7022026346999D-02
     4  3.0000000000000D-02 -6.3113468553902D-02  1.1543319100094D-01
     5  4.0000000000000D-02 -8.3934066702803D-02  1.5372516428139D-01
     6  5.0000000000000D-02 -1.0456991061500D-01  1.9185925079612D-01
     7  6.0000000000000D-02 -1.2497658499648D-01  2.2979762312240D-01
     8  7.0000000000000D-02 -1.4511081871606D-01  2.6750351507431D-01
     9  8.0000000000000D-02 -1.6493067632964D-01  3.0494139963352D-01
    10  9.0000000000000D-02 -1.8439573014153D-01  3.4207714894904D-01
    11  1.0000000000000D-01 -2.0346721028180D-01  3.7887817405850D-01
    12  1.1000000000000D-01 -2.2210813059495D-01  4.1531354226482D-01
    13  1.2000000000000D-01 -2.4028338848447D-01  4.5135407041196D-01
    14  1.3000000000000D-01 -2.5795983723562D-01  4.8697239263958D-01
    15  1.4000000000000D-01 -2.7510632974061D-01  5.2214300155318D-01
    16  1.5000000000000D-01 -2.9169373296988D-01  5.5684226212018D-01
    17  1.6000000000000D-01 -3.0769491296644D-01  5.9104839798770D-01
    18  1.7000000000000D-01 -3.2308469057996D-01  6.2474145030995D-01
    19  1.8000000000000D-01 -3.3783976859921D-01  6.5790320956763D-01
    20  1.9000000000000D-01 -3.5193863137798D-01  6.9051712125164D-01
    21  2.0000000000000D-01 -3.6536141847682D-01  7.2256816666601D-01
    22  2.1000000000000D-01 -3.7808977425349D-01  7.5404272047329D-01
    23  2.2000000000000D-01 -3.9010667572404D-01  7.8492838695555D-01
    24  2.3000000000000D-01 -4.0139624137874D-01  8.1521381729148D-01
    25  2.4000000000000D-01 -4.1194352396719D-01  8.4488851044895D-01
    26  2.5000000000000D-01 -4.2173429056026D-01  8.7394260056078D-01
    27  2.6000000000000D-01 -4.3075479344927D-01  9.0236663388345D-01
    28  2.7000000000000D-01 -4.3899153565036D-01  9.3015133863253D-01
    29  2.8000000000000D-01 -4.4643103494228D-01  9.5728739114097D-01
    30  2.9000000000000D-01 -4.5305959047446D-01  9.8376518189476D-01
    31  3.0000000000000D-01 -4.5886305603966D-01  1.0095745850637D+00
    32  3.1000000000000D-01 -4.6382662410709D-01  1.0347047351611D+00
    33  3.2000000000000D-01 -4.6793462466049D-01  1.0591438144342D+00
    34  3.3000000000000D-01 -4.7117034277767D-01  1.0828788545099D+00
    35  3.4000000000000D-01 -4.7351585872706D-01  1.1058955556918D+00
    36  3.5000000000000D-01 -4.7495191414201D-01  1.1281781271359D+00
    37  3.6000000000000D-01 -4.7545780756818D-01  1.1497091509123D+00
    38  3.7000000000000D-01 -4.7501132236521D-01  1.1704694727066D+00
    39  3.8000000000000D-01 -4.7358868958498D-01  1.1904381216127D+00
    40  3.9000000000000D-01 -4.7116458804785D-01  1.2095922611398D+00
    41  4.0000000000000D-01 -4.6771218340131D-01  1.2279071731871D+00
    42  4.1000000000000D-01 -4.6320320747539D-01  1.2453562763507D+00
    43  4.2000000000000D-01 -4.5760807875323D-01  1.2619111795058D+00
    44  4.3000000000000D-01 -4.5089606425789D-01  1.2775417711777D+00
    45  4.4000000000000D-01 -4.4303548262389D-01  1.2922163447615D+00
    46  4.5000000000000D-01 -4.3399394758178D-01  1.3059017591999D+00
    47  4.6000000000000D-01 -4.2373865053999D-01  1.3185636342641D+00
    48  4.7000000000000D-01 -4.1223668041054D-01  1.3301665791352D+00
    49  4.8000000000000D-01 -3.9945537829686D-01  1.3406744525298D+00
    50  4.9000000000000D-01 -3.8536272415230D-01  1.3500506521890D+00
    51  5.0000000000000D-01 -3.6992775203196D-01  1.3582584311332D+00
    52  5.1000000000000D-01 -3.5312099010452D-01  1.3652612377030D+00
    53  5.2000000000000D-01 -3.3491492117132D-01  1.3710230760480D+00
    54  5.3000000000000D-01 -3.1528445906220D-01  1.3755088834062D+00
    55  5.4000000000000D-01 -2.9420743594678D-01  1.3786849202326D+00
    56  5.5000000000000D-01 -2.7166509532004D-01  1.3805191690003D+00
    57  5.6000000000000D-01 -2.4764258519827D-01  1.3809817373032D+00
    58  5.7000000000000D-01 -2.2212944589583D-01  1.3800452607454D+00
    59  5.8000000000000D-01 -1.9512008665139D-01  1.3776853010153D+00
    60  5.9000000000000D-01 -1.6661424533338D-01  1.3738807345004D+00
    61  6.0000000000000D-01 -1.3661742548145D-01  1.3686141268173D+00
    62  6.1000000000000D-01 -1.0514130503389D-01  1.3618720887034D+00
    63  6.2000000000000D-01 -7.2204111249930D-02  1.3536456088394D+00
    64  6.3000000000000D-01 -3.7830956560592D-02  1.3439303593561D+00
    65  6.4000000000000D-01 -2.0541303689917D-03  1.3327269700051D+00
    66  6.5000000000000D-01  3.5086657830083D-02  1.3200412672583D+00
    67  6.6000000000000D-01  7.3544088233591D-02  1.3058844749280D+00
    68  6.7000000000000D-01  1.1326309718013D-01  1.2902733732712D+00
    69  6.8000000000000D-01  1.5418080351747D-01  1.2732304139545D+00
    70  6.9000000000000D-01  1.9622649758502D-01  1.2547837887017D+00
    71  7.0000000000000D-01  2.3932169491367D-01  1.2349674499277D+00
    72  7.1000000000000D-01  2.8338025612251D-01  1.2138210821569D+00
    73  7.2000000000000D-01  3.2830857383592D-01  1.1913900235562D+00
    74  7.3000000000000D-01  3.7400582677661D-01  1.1677251374407D+00
    75  7.4000000000000D-01  4.2036430050688D-01  1.1428826341559D+00
    76  7.5000000000000D-01  4.6726977360363D-01  1.1169238442844D+00
    77  7.6000000000000D-01  5.1460196737094D-01  1.0899149446623D+00
    78  7.7000000000000D-01  5.6223505652117D-01  1.0619266392184D+00
    79  7.8000000000000D-01  6.1003823760277D-01  1.0330337971572D+00
    80  7.9000000000000D-01  6.5787635132640D-01  1.0033150514933D+00
    81  8.0000000000000D-01  7.0561055434725D-01  9.7285236139916D-01
    82  8.1000000000000D-01  7.5309903550812D-01  9.4173054224753D-01
    83  8.2000000000000D-01  8.0019777104088D-01  9.1003676761003D-01
    84  8.3000000000000D-01  8.4676131277001D-01  8.7786004780806D-01
    85  8.4000000000000D-01  8.9264360296537D-01  8.4529068989600D-01
    86  8.5000000000000D-01  9.3769880915826D-01  8.1241974418923D-01
    87  8.6000000000000D-01  9.8178217196811D-01  7.7933844262514D-01
    88  8.7000000000000D-01  1.0247508587910D+00  7.4613763436251D-01
    89  8.8000000000000D-01  1.0664648160772D+00  7.1290722408188D-01
    90  8.9000000000000D-01  1.1067876128776D+00  6.7973561844537D-01
    91  9.0000000000000D-01  1.1455872683638D+00  6.4670918610886D-01
    92  9.1000000000000D-01  1.1827370561297D+00  6.1391173655281D-01
    93  9.2000000000000D-01  1.2181162782618D+00  5.8142402281146D-01
    94  9.3000000000000D-01  1.2516110024117D+00  5.4932327293545D-01
    95  9.4000000000000D-01  1.2831147554311D+00  5.1768275472301D-01
    96  9.5000000000000D-01  1.3125291675137D+00  4.8657137790243D-01
    97  9.6000000000000D-01  1.3397645612425D+00  4.5605333754929D-01
    98  9.7000000000000D-01  1.3647404804603D+00  4.2618780207080D-01
    99  9.8000000000000D-01  1.3873861544252D+00  3.9702864862077D-01
   100  9.9000000000000D-01  1.4076408933484D+00  3.6862424827614D-01
   101  1.0000000000000D+00  1.4254544120486D+00  3.4101730277115D-01
   102  1.0100000000000D+00  1.4407870791483D+00  3.1424473401792D-01
   103  1.0200000000000D+00  1.4536100899469D+00  2.8833762706297D-01
   104  1.0300000000000D+00  1.4639055618350D+00  2.6332122654275D-01
   105  1.0400000000000D+00  1.4716665518709D+00  2.3921498609835D-01
   106  1.0500000000000D+00  1.4768969968287D+00  2.1603266967057D-01
   107  1.0600000000000D+00  1.4796115768371D+00  1.9378250296667D-01
   108  1.0700000000000D+00  1.4798355043949D+00  1.7246737288538D-01
   109  1.0800000000000D+00  1.4776042412616D+00  1.5208507214865D-01
   110  1.0900000000000D+00  1.4729631464238D+00  1.3262858587755D-01
   111  1.1000000000000D+00  1.4659670588729D+00  1.1408641646139D-01
   112  1.1100000000000D+00  1.4566798196482D+00  9.6442942568988D-02
   113  1.1200000000000D+00  1.4451737380349D+00  7.9678807860023D-02
   114  1.1300000000000D+00  1.4315290073462D+00  6.3771334610444D-02
   115  1.1400000000000D+00  1.4158330760717D+00  4.8694957251533D-02
   116  1.1500000000000D+00  1.3981799806011D+00  3.4421670585238D-02
   117  1.1600000000000D+00  1.3786696459764D+00  2.0921487334934D-02
   118  1.1700000000000D+00  1.3574071613351D+00  8.1628996393723D-03
   119  1.1800000000000D+00  1.3345020368373D+00 -3.8866609339960D-03
   120  1.1900000000000D+00  1.3100674489721D+00 -1.5260370207179D-02
   121  1.2000000000000D+00  1.2842194810753D+00 -2.5991570243207D-02
   122  1.2100000000000D+00  1.2570763657971D+00 -3.6113345240075D-02
   123  1.2200000000000D+00  1.2287577361854D+00 -4.5658119315483D-02
   124  1.2300000000000D+00  1.1993838917153D+00 -5.4657280601963D-02
   125  1.2400000000000D+00  1.1690750852358D+00 -6.3140835671553D-02
   126  1.2500000000000D+00  1.1379508367537D+00 -7.1137098220371D-02
   127  1.2600000000000D+00  1.1061292791790D+00 -7.8672415082822D-02
   128  1.2700000000000D+00  1.0737265407288D+00 -8.5770932241542D-02
   129  1.2800000000000D+00  1.0408561686017D+00 -9.2454403382510D-02
   130  1.2900000000000D+00  1.0076285974070D+00 -9.8742042435556D-02
   131  1.3000000000000D+00  9.7415066530329D-01 -1.0465042107122D-01
   132  1.3100000000000D+00  9.4052518087523D-01 -1.1019341216333D-01
   133  1.3200000000000D+00  9.0685054215115D-01 -1.1538217872596D-01
   134  1.3300000000000D+00  8.7322040893191D-01 -1.2022520767104D-01
   135  1.3400000000000D+00  8.3972342956879D-01 -1.2472838765455D-01
   136  1.3500000000000D+00  8.0644302139223D-01 -1.2889512861633D-01
   137  1.3600000000000D+00  7.7345720443998D-01 -1.3272652103398D-01
   138  1.3700000000000D+00  7.4083848735635D-01 -1.3622153220220D-01
   139  1.3800000000000D+00  7.0865380289814D-01 -1.3937723574924D-01
   140  1.3900000000000D+00  6.7696449136766D-01 -1.4218907128197D-01
   141  1.4000000000000D+00  6.4582632848632D-01 -1.4465112963135D-01
   142  1.4100000000000D+00  6.1528959431233D-01 -1.4675645936313D-01
   143  1.4200000000000D+00  5.8539917983049D-01 -1.4849739008597D-01
   144  1.4300000000000D+00  5.5619472636194D-01 -1.4986586727764D-01
   145  1.4400000000000D+00  5.2771079398156D-01 -1.5085379393811D-01
   146  1.4500000000000D+00  4.9997705380743D-01 -1.5145337361840D-01
   147  1.4600000000000D+00  4.7301849961036D-01 -1.5165744999163D-01
   148  1.4700000000000D+00  4.4685567363011D-01 -1.5145983740730D-01
   149  1.4800000000000D+00  4.2150490190248D-01 -1.5085563807495D-01
   150  1.4900000000000D+00  3.9697853388747D-01 -1.4984154025478D-01
   151  1.5000000000000D+00  3.7328518196248D-01 -1.4841609363125D-01
   152  1.5100000000000D+00  3.5042995602085D-01 -1.4657995711935D-01
   153  1.5200000000000D+00  3.2841468864790D-01 -1.4433611509717D-01
   154  1.5300000000000D+00  3.0723814755163D-01 -1.4169005932568D-01
   155  1.5400000000000D+00  2.8689623012072D-01 -1.3864993180804D-01
   156  1.5500000000000D+00  2.6738213812819D-01 -1.3522662842307D-01
   157  1.5600000000000D+00  2.4868652805618D-01 -1.3143385807317D-01
   158  1.5700000000000D+00  2.3079764091843D-01 -1.2728816023819D-01
   159  1.5800000000000D+00  2.1370139714096D-01 -1.2280887472782D-01
   160  1.5900000000000D+00  1.9738161610173D-01 -1.1801809855217D-01
   161  1.6000000000000D+00  1.8181955917699D-01 -1.1294046273480D-01
   162  1.6100000000000D+00  1.6699427102769D-01 -1.0760303844182D-01
   163  1.6200000000000D+00  1.5288421864114D-01 -1.0203546308632D-01
   164  1.6300000000000D+00  1.3946844289785D-01 -9.6269952938014D-02
   165  1.6400000000000D+00  1.2672807601017D-01 -9.0341379400130D-02
   166  1.6500000000000D+00  1.1464686191837D-01 -8.4287108564425D-02
   167  1.6600000000000D+00  1.0321058299564D-01 -7.8146597441571D-02
   168  1.6700000000000D+00  9.2407017629655D-02 -7.1961066963967D-02
   169  1.6800000000000D+00  8.2225868535529D-02 -6.5773143340452D-02
   170  1.6900000000000D+00  7.2658562204894D-02 -5.9626454943998D-02
   171  1.7000000000000D+00  6.3698066335007D-02 -5.3565216537413D-02
   172  1.7100000000000D+00  5.5338669487487D-02 -4.7633794374914D-02
   173  1.7200000000000D+00  4.7575747043053D-02 -4.1876261346445D-02
   174  1.7300000000000D+00  4.0405514566331D-02 -3.6335947327240D-02
   175  1.7400000000000D+00  3.3824772420811D-02 -3.1054989489148D-02
   176  1.7500000000000D+00  2.7830646759025D-02 -2.6073889010742D-02
   177  1.7600000000000D+00  2.2420330355123D-02 -2.1431078463018D-02
   178  1.7700000000000D+00  1.7590828192720D-02 -1.7162506052154D-02
   179  1.7800000000000D+00  1.3338711358072D-02 -1.3301241132859D-02
   180  1.7900000000000D+00  9.6602262012132D-03 -9.8778551479382D-03
   181  1.8000000000000D+00  6.5502839130323D-03 -6.9183535793815D-03
   182  1.8100000000000D+00  4.0009509042871D-03 -4.4395487817822D-03
   183  1.8200000000000D+00  2.0065580040198D-03 -2.4593260767543D-03
   184  1.8300000000000D+00  5.6035455541404D-04 -1.0159070264172D-03
   185  1.8400000000000D+00 -3.6675893910077D-04 -1.1587421617854D-04
   186  1.8500000000000D+00 -7.4234468537923D-04  2.8718235815009D-04
   187  1.8600000000000D+00 -5.7405448887573D-04  2.8159289779802D-04
   188  1.8700000000000D+00 -1.6725900295884D-04  8.7866145878759D-05
   189  1.8800000000000D+00  8.2130034092493D-05 -4.4166867737306D-05
   190  1.8900000000000D+00  7.3247219167605D-05 -4.0201190961679D-05
   191  1.9000000000000D+00 -1.0174123069886D-05  5.2786403101787D-06
   192  1.9100000000000D+00 -2.0504299385468D-05  1.0742812326523D-05
   193  1.9200000000000D+00  6.3141359308838D-08 -2.6786298775265D-08
   194  1.9300000000000D+00  2.1286192655232D-06 -9.0301875425586D-07
   195  1.9400000000000D+00  7.6591379165650D-07 -3.2492166598851D-07
   196  1.9500000000000D+00  0.0000000000000D+00  0.0000000000000D+00
   197  1.9600000000000D+00  0.0000000000000D+00  0.0000000000000D+00
   198  1.9700000000000D+00  0.0000000000000D+00  0.0000000000000D+00
   199  1.9800000000000D+00  0.0000000000000D+00  0.0000000000000D+00
   200  1.9900000000000D+00  0.0000000000000D+00  0.0000000000000D+00
   201  2.0000000000000D+00  0.0000000000000D+00  0.0000000000000D+00
   202  2.0100000000000D+00  0.0000000000000D+00  0.0000000000000D+00
   203  2.0200000000000D+00  0.0000000000000D+00  0.0000000000000D+00
   204  2.0300000000000D+00  0.0000000000000D+00  0.0000000000000D+00
   205  2.0400000000000D+00  0.0000000000000D+00  0.0000000000000D+00
   206  2.0500000000000D+00  0.0000000000000D+00  0.0000000000000D+00
   207  2.0600000000000D+00  0.0000000000000D+00  0.0000000000000D+00
   208  2.0700000000000D+00  0.0000000000000D+00  0.0000000000000D+00
   209  2.0800000000000D+00  0.0000000000000D+00  0.0000000000000D+00
   210  2.0900000000000D+00  0.0000000000000D+00  0.0000000000000D+00
   211  2.1000000000000D+00  0.0000000000000D+00  0.0000000000000D+00
   212  2.1100000000000D+00  0.0000000000000D+00  0.0000000000000D+00
   213  2.1200000000000D+00  0.0000000000000D+00  0.0000000000000D+00
   214  2.1300000000000D+00  0.0000000000000D+00  0.0000000000000D+00
   215  2.1400000000000D+00  0.0000000000000D+00  0.0000000000000D+00
   216  2.1500000000000D+00  0.0000000000000D+00  0.0000000000000D+00
   217  2.1600000000000D+00  0.0000000000000D+00  0.0000000000000D+00
   218  2.1700000000000D+00  0.0000000000000D+00  0.0000000000000D+00
   219  2.1800000000000D+00  0.0000000000000D+00  0.0000000000000D+00
   220  2.1900000000000D+00  0.0000000000000D+00  0.0000000000000D+00
   221  2.2000000000000D+00  0.0000000000000D+00  0.0000000000000D+00
   222  2.2100000000000D+00  0.0000000000000D+00  0.0000000000000D+00
   223  2.2200000000000D+00  0.0000000000000D+00  0.0000000000000D+00
   224  2.2300000000000D+00  0.0000000000000D+00  0.0000000000000D+00
   225  2.2400000000000D+00  0.0000000000000D+00  0.0000000000000D+00
   226  2.2500000000000D+00  0.0000000000000D+00  0.0000000000000D+00
   227  2.2600000000000D+00  0.0000000000000D+00  0.0000000000000D+00
   228  2.2700000000000D+00  0.0000000000000D+00  0.0000000000000D+00
   229  2.2800000000000D+00  0.0000000000000D+00  0.0000000000000D+00
   230  2.2900000000000D+00  0.0000000000000D+00  0.0000000000000D+00
   231  2.3000000000000D+00  0.0000000000000D+00  0.0000000000000D+00
   232  2.3100000000000D+00  0.0000000000000D+00  0.0000000000000D+00
   233  2.3200000000000D+00  0.0000000000000D+00  0.0000000000000D+00
   234  2.3300000000000D+00  0.0000000000000D+00  0.0000000000000D+00
   235  2.3400000000000D+00  0.0000000000000D+00  0.0000000000000D+00
   236  2.3500000000000D+00  0.0000000000000D+00  0.0000000000000D+00
   237  2.3600000000000D+00  0.0000000000000D+00  0.0000000000000D+00
   238  2.3700000000000D+00  0.0000000000000D+00  0.0000000000000D+00
   239  2.3800000000000D+00  0.0000000000000D+00  0.0000000000000D+00
   240  2.3900000000000D+00  0.0000000000000D+00  0.0000000000000D+00
   241  2.4000000000000D+00  0.0000000000000D+00  0.0000000000000D+00
   242  2.4100000000000D+00  0.0000000000000D+00  0.0000000000000D+00
   243  2.4200000000000D+00  0.0000000000000D+00  0.0000000000000D+00
   244  2.4300000000000D+00  0.0000000000000D+00  0.0000000000000D+00
   245  2.4400000000000D+00  0.0000000000000D+00  0.0000000000000D+00
   246  2.4500000000000D+00  0.0000000000000D+00  0.0000000000000D+00
   247  2.4600000000000D+00  0.0000000000000D+00  0.0000000000000D+00
   248  2.4700000000000D+00  0.0000000000000D+00  0.0000000000000D+00
   249  2.4800000000000D+00  0.0000000000000D+00  0.0000000000000D+00
   250  2.4900000000000D+00  0.0000000000000D+00  0.0000000000000D+00
   251  2.5000000000000D+00  0.0000000000000D+00  0.0000000000000D+00
   252  2.5100000000000D+00  0.0000000000000D+00  0.0000000000000D+00
   253  2.5200000000000D+00  0.0000000000000D+00  0.0000000000000D+00
   254  2.5300000000000D+00  0.0000000000000D+00  0.0000000000000D+00
   255  2.5400000000000D+00  0.0000000000000D+00  0.0000000000000D+00
   256  2.5500000000000D+00  0.0000000000000D+00  0.0000000000000D+00
   257  2.5600000000000D+00  0.0000000000000D+00  0.0000000000000D+00
   258  2.5700000000000D+00  0.0000000000000D+00  0.0000000000000D+00
   259  2.5800000000000D+00  0.0000000000000D+00  0.0000000000000D+00
   260  2.5900000000000D+00  0.0000000000000D+00  0.0000000000000D+00
   261  2.6000000000000D+00  0.0000000000000D+00  0.0000000000000D+00
   262  2.6100000000000D+00  0.0000000000000D+00  0.0000000000000D+00
   263  2.6200000000000D+00  0.0000000000000D+00  0.0000000000000D+00
   264  2.6300000000000D+00  0.0000000000000D+00  0.0000000000000D+00
   265  2.6400000000000D+00  0.0000000000000D+00  0.0000000000000D+00
   266  2.6500000000000D+00  0.0000000000000D+00  0.0000000000000D+00
   267  2.6600000000000D+00  0.0000000000000D+00  0.0000000000000D+00
   268  2.6700000000000D+00  0.0000000000000D+00  0.0000000000000D+00
   269  2.6800000000000D+00  0.0000000000000D+00  0.0000000000000D+00
   270  2.6900000000000D+00  0.0000000000000D+00  0.0000000000000D+00
   271  2.7000000000000D+00  0.0000000000000D+00  0.0000000000000D+00
   272  2.7100000000000D+00  0.0000000000000D+00  0.0000000000000D+00
   273  2.7200000000000D+00  0.0000000000000D+00  0.0000000000000D+00
   274  2.7300000000000D+00  0.0000000000000D+00  0.0000000000000D+00
   275  2.7400000000000D+00  0.0000000000000D+00  0.0000000000000D+00
   276  2.7500000000000D+00  0.0000000000000D+00  0.0000000000000D+00
   277  2.7600000000000D+00  0.0000000000000D+00  0.0000000000000D+00
   278  2.7700000000000D+00  0.0000000000000D+00  0.0000000000000D+00
   279  2.7800000000000D+00  0.0000000000000D+00  0.0000000000000D+00
   280  2.7900000000000D+00  0.0000000000000D+00  0.0000000000000D+00
   281  2.8000000000000D+00  0.0000000000000D+00  0.0000000000000D+00
   282  2.8100000000000D+00  0.0000000000000D+00  0.0000000000000D+00
   283  2.8200000000000D+00  0.0000000000000D+00  0.0000000000000D+00
   284  2.8300000000000D+00  0.0000000000000D+00  0.0000000000000D+00
   285  2.8400000000000D+00  0.0000000000000D+00  0.0000000000000D+00
   286  2.8500000000000D+00  0.0000000000000D+00  0.0000000000000D+00
   287  2.8600000000000D+00  0.0000000000000D+00  0.0000000000000D+00
   288  2.8700000000000D+00  0.0000000000000D+00  0.0000000000000D+00
   289  2.8800000000000D+00  0.0000000000000D+00  0.0000000000000D+00
   290  2.8900000000000D+00  0.0000000000000D+00  0.0000000000000D+00
   291  2.9000000000000D+00  0.0000000000000D+00  0.0000000000000D+00
   292  2.9100000000000D+00  0.0000000000000D+00  0.0000000000000D+00
   293  2.9200000000000D+00  0.0000000000000D+00  0.0000000000000D+00
   294  2.9300000000000D+00  0.0000000000000D+00  0.0000000000000D+00
   295  2.9400000000000D+00  0.0000000000000D+00  0.0000000000000D+00
   296  2.9500000000000D+00  0.0000000000000D+00  0.0000000000000D+00
   297  2.9600000000000D+00  0.0000000000000D+00  0.0000000000000D+00
   298  2.9700000000000D+00  0.0000000000000D+00  0.0000000000000D+00
   299  2.9800000000000D+00  0.0000000000000D+00  0.0000000000000D+00
   300  2.9900000000000D+00  0.0000000000000D+00  0.0000000000000D+00
   301  3.0000000000000D+00  0.0000000000000D+00  0.0000000000000D+00
   302  3.0100000000000D+00  0.0000000000000D+00  0.0000000000000D+00
   303  3.0200000000000D+00  0.0000000000000D+00  0.0000000000000D+00
   304  3.0300000000000D+00  0.0000000000000D+00  0.0000000000000D+00
   305  3.0400000000000D+00  0.0000000000000D+00  0.0000000000000D+00
   306  3.0500000000000D+00  0.0000000000000D+00  0.0000000000000D+00
   307  3.0600000000000D+00  0.0000000000000D+00  0.0000000000000D+00
   308  3.0700000000000D+00  0.0000000000000D+00  0.0000000000000D+00
   309  3.0800000000000D+00  0.0000000000000D+00  0.0000000000000D+00
   310  3.0900000000000D+00  0.0000000000000D+00  0.0000000000000D+00
   311  3.1000000000000D+00  0.0000000000000D+00  0.0000000000000D+00
   312  3.1100000000000D+00  0.0000000000000D+00  0.0000000000000D+00
   313  3.1200000000000D+00  0.0000000000000D+00  0.0000000000000D+00
   314  3.1300000000000D+00  0.0000000000000D+00  0.0000000000000D+00
   315  3.1400000000000D+00  0.0000000000000D+00  0.0000000000000D+00
   316  3.1500000000000D+00  0.0000000000000D+00  0.0000000000000D+00
   317  3.1600000000000D+00  0.0000000000000D+00  0.0000000000000D+00
   318  3.1700000000000D+00  0.0000000000000D+00  0.0000000000000D+00
   319  3.1800000000000D+00  0.0000000000000D+00  0.0000000000000D+00
   320  3.1900000000000D+00  0.0000000000000D+00  0.0000000000000D+00
   321  3.2000000000000D+00  0.0000000000000D+00  0.0000000000000D+00
   322  3.2100000000000D+00  0.0000000000000D+00  0.0000000000000D+00
   323  3.2200000000000D+00  0.0000000000000D+00  0.0000000000000D+00
   324  3.2300000000000D+00  0.0000000000000D+00  0.0000000000000D+00
   325  3.2400000000000D+00  0.0000000000000D+00  0.0000000000000D+00
   326  3.2500000000000D+00  0.0000000000000D+00  0.0000000000000D+00
   327  3.2600000000000D+00  0.0000000000000D+00  0.0000000000000D+00
   328  3.2700000000000D+00  0.0000000000000D+00  0.0000000000000D+00
   329  3.2800000000000D+00  0.0000000000000D+00  0.0000000000000D+00
   330  3.2900000000000D+00  0.0000000000000D+00  0.0000000000000D+00
   331  3.3000000000000D+00  0.0000000000000D+00  0.0000000000000D+00
   332  3.3100000000000D+00  0.0000000000000D+00  0.0000000000000D+00
   333  3.3200000000000D+00  0.0000000000000D+00  0.0000000000000D+00
   334  3.3300000000000D+00  0.0000000000000D+00  0.0000000000000D+00
   335  3.3400000000000D+00  0.0000000000000D+00  0.0000000000000D+00
   336  3.3500000000000D+00  0.0000000000000D+00  0.0000000000000D+00
   337  3.3600000000000D+00  0.0000000000000D+00  0.0000000000000D+00
   338  3.3700000000000D+00  0.0000000000000D+00  0.0000000000000D+00
   339  3.3800000000000D+00  0.0000000000000D+00  0.0000000000000D+00
   340  3.3900000000000D+00  0.0000000000000D+00  0.0000000000000D+00
   341  3.4000000000000D+00  0.0000000000000D+00  0.0000000000000D+00
   342  3.4100000000000D+00  0.0000000000000D+00  0.0000000000000D+00
   343  3.4200000000000D+00  0.0000000000000D+00  0.0000000000000D+00
   344  3.4300000000000D+00  0.0000000000000D+00  0.0000000000000D+00
   345  3.4400000000000D+00  0.0000000000000D+00  0.0000000000000D+00
   346  3.4500000000000D+00  0.0000000000000D+00  0.0000000000000D+00
   347  3.4600000000000D+00  0.0000000000000D+00  0.0000000000000D+00
   348  3.4700000000000D+00  0.0000000000000D+00  0.0000000000000D+00
   349  3.4800000000000D+00  0.0000000000000D+00  0.0000000000000D+00
   350  3.4900000000000D+00  0.0000000000000D+00  0.0000000000000D+00
   351  3.5000000000000D+00  0.0000000000000D+00  0.0000000000000D+00
   352  3.5100000000000D+00  0.0000000000000D+00  0.0000000000000D+00
   353  3.5200000000000D+00  0.0000000000000D+00  0.0000000000000D+00
   354  3.5300000000000D+00  0.0000000000000D+00  0.0000000000000D+00
   355  3.5400000000000D+00  0.0000000000000D+00  0.0000000000000D+00
   356  3.5500000000000D+00  0.0000000000000D+00  0.0000000000000D+00
   357  3.5600000000000D+00  0.0000000000000D+00  0.0000000000000D+00
   358  3.5700000000000D+00  0.0000000000000D+00  0.0000000000000D+00
   359  3.5800000000000D+00  0.0000000000000D+00  0.0000000000000D+00
   360  3.5900000000000D+00  0.0000000000000D+00  0.0000000000000D+00
   361  3.6000000000000D+00  0.0000000000000D+00  0.0000000000000D+00
   362  3.6100000000000D+00  0.0000000000000D+00  0.0000000000000D+00
   363  3.6200000000000D+00  0.0000000000000D+00  0.0000000000000D+00
   364  3.6300000000000D+00  0.0000000000000D+00  0.0000000000000D+00
   365  3.6400000000000D+00  0.0000000000000D+00  0.0000000000000D+00
   366  3.6500000000000D+00  0.0000000000000D+00  0.0000000000000D+00
   367  3.6600000000000D+00  0.0000000000000D+00  0.0000000000000D+00
   368  3.6700000000000D+00  0.0000000000000D+00  0.0000000000000D+00
   369  3.6800000000000D+00  0.0000000000000D+00  0.0000000000000D+00
   370  3.6900000000000D+00  0.0000000000000D+00  0.0000000000000D+00
   371  3.7000000000000D+00  0.0000000000000D+00  0.0000000000000D+00
   372  3.7100000000000D+00  0.0000000000000D+00  0.0000000000000D+00
   373  3.7200000000000D+00  0.0000000000000D+00  0.0000000000000D+00
   374  3.7300000000000D+00  0.0000000000000D+00  0.0000000000000D+00
   375  3.7400000000000D+00  0.0000000000000D+00  0.0000000000000D+00
   376  3.7500000000000D+00  0.0000000000000D+00  0.0000000000000D+00
   377  3.7600000000000D+00  0.0000000000000D+00  0.0000000000000D+00
   378  3.7700000000000D+00  0.0000000000000D+00  0.0000000000000D+00
   379  3.7800000000000D+00  0.0000000000000D+00  0.0000000000000D+00
   380  3.7900000000000D+00  0.0000000000000D+00  0.0000000000000D+00
   381  3.8000000000000D+00  0.0000000000000D+00  0.0000000000000D+00
   382  3.8100000000000D+00  0.0000000000000D+00  0.0000000000000D+00
   383  3.8200000000000D+00  0.0000000000000D+00  0.0000000000000D+00
   384  3.8300000000000D+00  0.0000000000000D+00  0.0000000000000D+00
   385  3.8400000000000D+00  0.0000000000000D+00  0.0000000000000D+00
   386  3.8500000000000D+00  0.0000000000000D+00  0.0000000000000D+00
   387  3.8600000000000D+00  0.0000000000000D+00  0.0000000000000D+00
   388  3.8700000000000D+00  0.0000000000000D+00  0.0000000000000D+00
   389  3.8800000000000D+00  0.0000000000000D+00  0.0000000000000D+00
   390  3.8900000000000D+00  0.0000000000000D+00  0.0000000000000D+00
   391  3.9000000000000D+00  0.0000000000000D+00  0.0000000000000D+00
   392  3.9100000000000D+00  0.0000000000000D+00  0.0000000000000D+00
   393  3.9200000000000D+00  0.0000000000000D+00  0.0000000000000D+00
   394  3.9300000000000D+00  0.0000000000000D+00  0.0000000000000D+00
   395  3.9400000000000D+00  0.0000000000000D+00  0.0000000000000D+00
   396  3.9500000000000D+00  0.0000000000000D+00  0.0000000000000D+00
   397  3.9600000000000D+00  0.0000000000000D+00  0.0000000000000D+00
   398  3.9700000000000D+00  0.0000000000000D+00  0.0000000000000D+00
   399  3.9800000000000D+00  0.0000000000000D+00  0.0000000000000D+00
   400  3.9900000000000D+00  0.0000000000000D+00  0.0000000000000D+00
   401  4.0000000000000D+00  0.0000000000000D+00  0.0000000000000D+00
   402  4.0100000000000D+00  0.0000000000000D+00  0.0000000000000D+00
   403  4.0200000000000D+00  0.0000000000000D+00  0.0000000000000D+00
   404  4.0300000000000D+00  0.0000000000000D+00  0.0000000000000D+00
   405  4.0400000000000D+00  0.0000000000000D+00  0.0000000000000D+00
   406  4.0500000000000D+00  0.0000000000000D+00  0.0000000000000D+00
   407  4.0600000000000D+00  0.0000000000000D+00  0.0000000000000D+00
   408  4.0700000000000D+00  0.0000000000000D+00  0.0000000000000D+00
   409  4.0800000000000D+00  0.0000000000000D+00  0.0000000000000D+00
   410  4.0900000000000D+00  0.0000000000000D+00  0.0000000000000D+00
   411  4.1000000000000D+00  0.0000000000000D+00  0.0000000000000D+00
   412  4.1100000000000D+00  0.0000000000000D+00  0.0000000000000D+00
   413  4.1200000000000D+00  0.0000000000000D+00  0.0000000000000D+00
   414  4.1300000000000D+00  0.0000000000000D+00  0.0000000000000D+00
   415  4.1400000000000D+00  0.0000000000000D+00  0.0000000000000D+00
   416  4.1500000000000D+00  0.0000000000000D+00  0.0000000000000D+00
   417  4.1600000000000D+00  0.0000000000000D+00  0.0000000000000D+00
   418  4.1700000000000D+00  0.0000000000000D+00  0.0000000000000D+00
   419  4.1800000000000D+00  0.0000000000000D+00  0.0000000000000D+00
   420  4.1900000000000D+00  0.0000000000000D+00  0.0000000000000D+00
   421  4.2000000000000D+00  0.0000000000000D+00  0.0000000000000D+00
   422  4.2100000000000D+00  0.0000000000000D+00  0.0000000000000D+00