Cr    ONCVPSP-3.3.0  r_core=   1.30591   1.30591   1.71817
     24.0000     14.0000      170825    zatom,zion,pspd
     8   -1012   2     4   600     0    pspcod,pspxc,lmax,lloc,mmax,r2well
  5.99000000  5.00000000  0.00000000    rchrg fchrg qchrg
     2     3     2     0    nproj
     3     1           extension_switch
     4     3     0    nprojso
   0                        -1.1470084354122D+00  6.3757405005867D+00
     1  0.0000000000000D+00  1.4814496074322D-08  1.3738311599454D-09
     2  1.0000000000000D-02 -9.3824908103781D-02  7.5070389361328D-02
     3  2.0000000000000D-02 -1.8672536354411D-01  1.5001340819614D-01
     4  3.0000000000000D-02 -2.7778970981752D-01  2.2470115361251D-01
     5  4.0000000000000D-02 -3.6613166578342D-01  2.9900467628394D-01
     6  5.0000000000000D-02 -4.5090247482666D-01  3.7279350261329D-01
     7  6.0000000000000D-02 -5.3130241857607D-01  4.4593521035419D-01
     8  7.0000000000000D-02 -6.0659150112215D-01  5.1829507386145D-01
     9  8.0000000000000D-02 -6.7609912449239D-01  5.8973579376864D-01
    10  9.0000000000000D-02 -7.3923259415860D-01  6.6011732422035D-01
    11  1.0000000000000D-01 -7.9548431425110D-01  7.2929680885060D-01
    12  1.1000000000000D-01 -8.4443755556204D-01  7.9712863453109D-01
    13  1.2000000000000D-01 -8.8577070492167D-01  8.6346460955350D-01
    14  1.3000000000000D-01 -9.1925993166786D-01  9.2815427040152D-01
    15  1.4000000000000D-01 -9.4478023521822D-01  9.9104531865609D-01
    16  1.5000000000000D-01 -9.6230486668704D-01  1.0519841869094D+00
    17  1.6000000000000D-01 -9.7190314654959D-01  1.1108167298884D+00
    18  1.7000000000000D-01 -9.7373672901921D-01  1.1673890343552D+00
    19  1.8000000000000D-01 -9.6805439155458D-01  1.2215483388105D+00
    20  1.9000000000000D-01 -9.5518545425232D-01  1.2731440516203D+00
    21  2.0000000000000D-01 -9.3553195832930D-01  1.3220288539658D+00
    22  2.1000000000000D-01 -9.0955975501141D-01  1.3680598720187D+00
    23  2.2000000000000D-01 -8.7778867552207D-01  1.4110999010086D+00
    24  2.3000000000000D-01 -8.4078196914340D-01  1.4510186624126D+00
    25  2.4000000000000D-01 -7.9913520920794D-01  1.4876940743820D+00
    26  2.5000000000000D-01 -7.5346487612438D-01  1.5210135147538D+00
    27  2.6000000000000D-01 -7.0439683197063D-01  1.5508750555947D+00
    28  2.7000000000000D-01 -6.5255490269234D-01  1.5771886481949D+00
    29  2.8000000000000D-01 -5.9854978148362D-01  1.5998772377799D+00
    30  2.9000000000000D-01 -5.4296846053190D-01  1.6188777879353D+00
    31  3.0000000000000D-01 -4.8636438808251D-01  1.6341421958291D+00
    32  3.1000000000000D-01 -4.2924853389223D-01  1.6456380807570D+00
    33  3.2000000000000D-01 -3.7208152883354D-01  1.6533494303034D+00
    34  3.3000000000000D-01 -3.1526702398379D-01  1.6572770904771D+00
    35  3.4000000000000D-01 -2.5914639134460D-01  1.6574390885090D+00
    36  3.5000000000000D-01 -2.0399486279945D-01  1.6538707795565D+00
    37  3.6000000000000D-01 -1.5001917648385D-01  1.6466248112946D+00
    38  3.7000000000000D-01 -9.7356770909197D-02  1.6357709032490D+00
    39  3.8000000000000D-01 -4.6076537465550D-02  1.6213954406831D+00
    40  3.9000000000000D-01  3.8188881256308D-03  1.6036008858471D+00
    41  4.0000000000000D-01  5.2389344686143D-02  1.5825050123707D+00
    42  4.1000000000000D-01  9.9751953146142D-02  1.5582399714885D+00
    43  4.2000000000000D-01  1.4607461895355D-01  1.5309512015702D+00
    44  4.3000000000000D-01  1.9156836145086D-01  1.5007961950417D+00
    45  4.4000000000000D-01  2.3647862600447D-01  1.4679431391737D+00
    46  4.5000000000000D-01  2.8107575556923D-01  1.4325694493499D+00
    47  4.6000000000000D-01  3.2564481610139D-01  1.3948602152534D+00
    48  4.7000000000000D-01  3.7047498444283D-01  1.3550065819038D+00
    49  4.8000000000000D-01  4.1584871769658D-01  1.3132040886087D+00
    50  4.9000000000000D-01  4.6203092947647D-01  1.2696509896309D+00
    51  5.0000000000000D-01  5.0925840058670D-01  1.2245465807158D+00
    52  5.1000000000000D-01  5.5772964959334D-01  1.1780895555467D+00
    53  5.2000000000000D-01  6.0759548239069D-01  1.1304764157133D+00
    54  5.3000000000000D-01  6.5895042930584D-01  1.0818999568822D+00
    55  5.4000000000000D-01  7.1182526369569D-01  1.0325478525728D+00
    56  5.5000000000000D-01  7.6618077759176D-01  9.8260135527920D-01
    57  5.6000000000000D-01  8.2190296800056D-01  9.3223413266842D-01
    58  5.7000000000000D-01  8.7879976246415D-01  8.8161125426456D-01
    59  5.8000000000000D-01  9.3659938460269D-01  8.3088834142386D-01
    60  5.9000000000000D-01  9.9495043046484D-01  7.8021089058596D-01
    61  6.0000000000000D-01  1.0534236946143D+00  7.2971377676068D-01
    62  6.1000000000000D-01  1.1115157521602D+00  6.7952094108396D-01
    63  6.2000000000000D-01  1.1686542693201D+00  6.2974526304357D-01
    64  6.3000000000000D-01  1.2242049818080D+00  5.8048861475093D-01
    65  6.4000000000000D-01  1.2774802475453D+00  5.3184209143541D-01
    66  6.5000000000000D-01  1.3277490486399D+00  4.8388640923133D-01
    67  6.6000000000000D-01  1.3742482880346D+00  4.3669245839009D-01
    68  6.7000000000000D-01  1.4161951989077D+00  3.9032199729824D-01
    69  6.8000000000000D-01  1.4528006606357D+00  3.4482847019771D-01
    70  6.9000000000000D-01  1.4832831942652D+00  3.0025792932051D-01
    71  7.0000000000000D-01  1.5068833934204D+00  2.5665004031029D-01
    72  7.1000000000000D-01  1.5228785336847D+00  2.1403914833381D-01
    73  7.2000000000000D-01  1.5305970952000D+00  1.7245538123480D-01
    74  7.3000000000000D-01  1.5294329295524D+00  1.3192576545291D-01
    75  7.4000000000000D-01  1.5188588031865D+00  9.2475330246613D-02
    76  7.5000000000000D-01  1.4984390556081D+00  5.4128176022128D-02
    77  7.6000000000000D-01  1.4678411215167D+00  1.6908483285315D-02
    78  7.7000000000000D-01  1.4268456815264D+00 -1.9158560117924D-02
    79  7.8000000000000D-01  1.3753552261508D+00 -5.4045934236196D-02
    80  7.9000000000000D-01  1.3134008419039D+00 -8.7724083520382D-02
    81  8.0000000000000D-01  1.2411470563356D+00 -1.2016035107561D-01
    82  8.1000000000000D-01  1.1588946101311D+00 -1.5131856447827D-01
    83  8.2000000000000D-01  1.0670810585320D+00 -1.8115878405202D-01
    84  8.3000000000000D-01  9.6627914072204D-01 -2.0963722134341D-01
    85  8.4000000000000D-01  8.5719289384534D-01 -2.3670633221339D-01
    86  8.5000000000000D-01  7.4065152730589D-01 -2.6231508552663D-01
    87  8.6000000000000D-01  6.1760111229660D-01 -2.8640940493456D-01
    88  8.7000000000000D-01  4.8909418045056D-01 -3.0893277777106D-01
    89  8.8000000000000D-01  3.5627736323731D-01 -3.2982702169007D-01
    90  8.9000000000000D-01  2.2037723985724D-01 -3.4903319640825D-01
    91  9.0000000000000D-01  8.2684594964354D-02 -3.6649264485903D-01
    92  9.1000000000000D-01 -5.5462681868413D-02 -3.8214814525936D-01
    93  9.2000000000000D-01 -1.9269779607756D-01 -3.9594515309566D-01
    94  9.3000000000000D-01 -3.2764406575807D-01 -4.0783310989772D-01
    95  9.4000000000000D-01 -4.5893445713808D-01 -4.1776679393196D-01
    96  9.5000000000000D-01 -5.8523132472454D-01 -4.2570768664226D-01
    97  9.6000000000000D-01 -7.0524603495543D-01 -4.3162532782706D-01
    98  9.7000000000000D-01 -8.1775814963354D-01 -4.3549863218389D-01
    99  9.8000000000000D-01 -9.2163384837018D-01 -4.3731713998591D-01
   100  9.9000000000000D-01 -1.0158432779975D+00 -4.3708217530296D-01
   101  1.0000000000000D+00 -1.0994765307825D+00 -4.3480788629042D-01
   102  1.0100000000000D+00 -1.1717579723827D+00 -4.3052214364910D-01
   103  1.0200000000000D+00 -1.2320586653813D+00 -4.2426727545856D-01
   104  1.0300000000000D+00 -1.2799066627196D+00 -4.1610061901555D-01
   105  1.0400000000000D+00 -1.3149949785413D+00 -4.0609487316274D-01
   106  1.0500000000000D+00 -1.3371870814560D+00 -3.9433823783769D-01
   107  1.0600000000000D+00 -1.3465197940953D+00 -3.8093433095004D-01
   108  1.0700000000000D+00 -1.3432035247409D+00 -3.6600187635082D-01
   109  1.0800000000000D+00 -1.3276198028018D+00 -3.4967416068465D-01
   110  1.0900000000000D+00 -1.3003161323582D+00 -3.3209826064118D-01
   111  1.1000000000000D+00 -1.2619982260055D+00 -3.1343404634558D-01
   112  1.1100000000000D+00 -1.2135197209134D+00 -2.9385297012499D-01
   113  1.1200000000000D+00 -1.1558695266340D+00 -2.7353665409095D-01
   114  1.1300000000000D+00 -1.0901569937317D+00 -2.5267529347478D-01
   115  1.1400000000000D+00 -1.0175951309216D+00 -2.3146589607146D-01
   116  1.1500000000000D+00 -9.3948213048479D-01 -2.1011038099050D-01
   117  1.1600000000000D+00 -8.5718149486732D-01 -1.8881356285187D-01
   118  1.1700000000000D+00 -7.7210108416250D-01 -1.6778104994534D-01
   119  1.1800000000000D+00 -6.8567142272162D-01 -1.4721708651979D-01
   120  1.1900000000000D+00 -5.9932361716770D-01 -1.2732237061624D-01
   121  1.2000000000000D+00 -5.1446725269363D-01 -1.0829188015857D-01
   122  1.2100000000000D+00 -4.3246863338161D-01 -9.0312739914262D-02
   123  1.2200000000000D+00 -3.5462972871510D-01 -7.3562161618770D-02
   124  1.2300000000000D+00 -2.8216818748964D-01 -5.8205489471730D-02
   125  1.2400000000000D+00 -2.1619875771027D-01 -4.4394381195647D-02
   126  1.2500000000000D+00 -1.5771642586914D-01 -3.2265152598439D-02
   127  1.2600000000000D+00 -1.0758158754848D-01 -2.1937313453033D-02
   128  1.2700000000000D+00 -6.6533023156063D-02 -1.3517413348852D-02
   129  1.2800000000000D+00 -3.4913576858643D-02 -7.0459820994393D-03
   130  1.2900000000000D+00 -1.3580428986872D-02 -2.6764446125443D-03
   131  1.3000000000000D+00 -3.0404942669103D-03 -5.0342261283213D-04
   132  1.3100000000000D+00  1.0925483122739D-04  1.0805489621003D-04
   133  1.3200000000000D+00  8.0396776171807D-05  2.6092433325252D-05
   134  1.3300000000000D+00 -1.2670404481206D-04 -3.7296152894118D-05
   135  1.3400000000000D+00  1.0868693134581D-05  3.7354918422186D-06
   136  1.3500000000000D+00  1.2731776937868D-05  4.1477396815474D-06
   137  1.3600000000000D+00  1.6368024405802D-06  2.8256082636993D-08
   138  1.3700000000000D+00  0.0000000000000D+00  0.0000000000000D+00
   139  1.3800000000000D+00  0.0000000000000D+00  0.0000000000000D+00
   140  1.3900000000000D+00  0.0000000000000D+00  0.0000000000000D+00
   141  1.4000000000000D+00  0.0000000000000D+00  0.0000000000000D+00
   142  1.4100000000000D+00  0.0000000000000D+00  0.0000000000000D+00
   143  1.4200000000000D+00  0.0000000000000D+00  0.0000000000000D+00
   144  1.4300000000000D+00  0.0000000000000D+00  0.0000000000000D+00
   145  1.4400000000000D+00  0.0000000000000D+00  0.0000000000000D+00
   146  1.4500000000000D+00  0.0000000000000D+00  0.0000000000000D+00
   147  1.4600000000000D+00  0.0000000000000D+00  0.0000000000000D+00
   148  1.4700000000000D+00  0.0000000000000D+00  0.0000000000000D+00
   149  1.4800000000000D+00  0.0000000000000D+00  0.0000000000000D+00
   150  1.4900000000000D+00  0.0000000000000D+00  0.0000000000000D+00
   151  1.5000000000000D+00  0.0000000000000D+00  0.0000000000000D+00
   152  1.5100000000000D+00  0.0000000000000D+00  0.0000000000000D+00
   153  1.5200000000000D+00  0.0000000000000D+00  0.0000000000000D+00
   154  1.5300000000000D+00  0.0000000000000D+00  0.0000000000000D+00
   155  1.5400000000000D+00  0.0000000000000D+00  0.0000000000000D+00
   156  1.5500000000000D+00  0.0000000000000D+00  0.0000000000000D+00
   157  1.5600000000000D+00  0.0000000000000D+00  0.0000000000000D+00
   158  1.5700000000000D+00  0.0000000000000D+00  0.0000000000000D+00
   159  1.5800000000000D+00  0.0000000000000D+00  0.0000000000000D+00
   160  1.5900000000000D+00  0.0000000000000D+00  0.0000000000000D+00
   161  1.6000000000000D+00  0.0000000000000D+00  0.0000000000000D+00
   162  1.6100000000000D+00  0.0000000000000D+00  0.0000000000000D+00
   163  1.6200000000000D+00  0.0000000000000D+00  0.0000000000000D+00
   164  1.6300000000000D+00  0.0000000000000D+00  0.0000000000000D+00
   165  1.6400000000000D+00  0.0000000000000D+00  0.0000000000000D+00
   166  1.6500000000000D+00  0.0000000000000D+00  0.0000000000000D+00
   167  1.6600000000000D+00  0.0000000000000D+00  0.0000000000000D+00
   168  1.6700000000000D+00  0.0000000000000D+00  0.0000000000000D+00
   169  1.6800000000000D+00  0.0000000000000D+00  0.0000000000000D+00
   170  1.6900000000000D+00  0.0000000000000D+00  0.0000000000000D+00
   171  1.7000000000000D+00  0.0000000000000D+00  0.0000000000000D+00
   172  1.7100000000000D+00  0.0000000000000D+00  0.0000000000000D+00
   173  1.7200000000000D+00  0.0000000000000D+00  0.0000000000000D+00
   174  1.7300000000000D+00  0.0000000000000D+00  0.0000000000000D+00
   175  1.7400000000000D+00  0.0000000000000D+00  0.0000000000000D+00
   176  1.7500000000000D+00  0.0000000000000D+00  0.0000000000000D+00
   177  1.7600000000000D+00  0.0000000000000D+00  0.0000000000000D+00
   178  1.7700000000000D+00  0.0000000000000D+00  0.0000000000000D+00
   179  1.7800000000000D+00  0.0000000000000D+00  0.0000000000000D+00
   180  1.7900000000000D+00  0.0000000000000D+00  0.0000000000000D+00
   181  1.8000000000000D+00  0.0000000000000D+00  0.0000000000000D+00
   182  1.8100000000000D+00  0.0000000000000D+00  0.0000000000000D+00
   183  1.8200000000000D+00  0.0000000000000D+00  0.0000000000000D+00
   184  1.8300000000000D+00  0.0000000000000D+00  0.0000000000000D+00
   185  1.8400000000000D+00  0.0000000000000D+00  0.0000000000000D+00
   186  1.8500000000000D+00  0.0000000000000D+00  0.0000000000000D+00
   187  1.8600000000000D+00  0.0000000000000D+00  0.0000000000000D+00
   188  1.8700000000000D+00  0.0000000000000D+00  0.0000000000000D+00
   189  1.8800000000000D+00  0.0000000000000D+00  0.0000000000000D+00
   190  1.8900000000000D+00  0.0000000000000D+00  0.0000000000000D+00
   191  1.9000000000000D+00  0.0000000000000D+00  0.0000000000000D+00
   192  1.9100000000000D+00  0.0000000000000D+00  0.0000000000000D+00
   193  1.9200000000000D+00  0.0000000000000D+00  0.0000000000000D+00
   194  1.9300000000000D+00  0.0000000000000D+00  0.0000000000000D+00
   195  1.9400000000000D+00  0.0000000000000D+00  0.0000000000000D+00
   196  1.9500000000000D+00  0.0000000000000D+00  0.0000000000000D+00
   197  1.9600000000000D+00  0.0000000000000D+00  0.0000000000000D+00
   198  1.9700000000000D+00  0.0000000000000D+00  0.0000000000000D+00
   199  1.9800000000000D+00  0.0000000000000D+00  0.0000000000000D+00
   200  1.9900000000000D+00  0.0000000000000D+00  0.0000000000000D+00
   201  2.0000000000000D+00  0.0000000000000D+00  0.0000000000000D+00
   202  2.0100000000000D+00  0.0000000000000D+00  0.0000000000000D+00
   203  2.0200000000000D+00  0.0000000000000D+00  0.0000000000000D+00
   204  2.0300000000000D+00  0.0000000000000D+00  0.0000000000000D+00
   205  2.0400000000000D+00  0.0000000000000D+00  0.0000000000000D+00
   206  2.0500000000000D+00  0.0000000000000D+00  0.0000000000000D+00
   207  2.0600000000000D+00  0.0000000000000D+00  0.0000000000000D+00
   208  2.0700000000000D+00  0.0000000000000D+00  0.0000000000000D+00
   209  2.0800000000000D+00  0.0000000000000D+00  0.0000000000000D+00
   210  2.0900000000000D+00  0.0000000000000D+00  0.0000000000000D+00
   211  2.1000000000000D+00  0.0000000000000D+00  0.0000000000000D+00
   212  2.1100000000000D+00  0.0000000000000D+00  0.0000000000000D+00
   213  2.1200000000000D+00  0.0000000000000D+00  0.0000000000000D+00
   214  2.1300000000000D+00  0.0000000000000D+00  0.0000000000000D+00
   215  2.1400000000000D+00  0.0000000000000D+00  0.0000000000000D+00
   216  2.1500000000000D+00  0.0000000000000D+00  0.0000000000000D+00
   217  2.1600000000000D+00  0.0000000000000D+00  0.0000000000000D+00
   218  2.1700000000000D+00  0.0000000000000D+00  0.0000000000000D+00
   219  2.1800000000000D+00  0.0000000000000D+00  0.0000000000000D+00
   220  2.1900000000000D+00  0.0000000000000D+00  0.0000000000000D+00
   221  2.2000000000000D+00  0.0000000000000D+00  0.0000000000000D+00
   222  2.2100000000000D+00  0.0000000000000D+00  0.0000000000000D+00
   223  2.2200000000000D+00  0.0000000000000D+00  0.0000000000000D+00
   224  2.2300000000000D+00  0.0000000000000D+00  0.0000000000000D+00
   225  2.2400000000000D+00  0.0000000000000D+00  0.0000000000000D+00
   226  2.2500000000000D+00  0.0000000000000D+00  0.0000000000000D+00
   227  2.2600000000000D+00  0.0000000000000D+00  0.0000000000000D+00
   228  2.2700000000000D+00  0.0000000000000D+00  0.0000000000000D+00
   229  2.2800000000000D+00  0.0000000000000D+00  0.0000000000000D+00
   230  2.2900000000000D+00  0.0000000000000D+00  0.0000000000000D+00
   231  2.3000000000000D+00  0.0000000000000D+00  0.0000000000000D+00
   232  2.3100000000000D+00  0.0000000000000D+00  0.0000000000000D+00
   233  2.3200000000000D+00  0.0000000000000D+00  0.0000000000000D+00
   234  2.3300000000000D+00  0.0000000000000D+00  0.0000000000000D+00
   235  2.3400000000000D+00  0.0000000000000D+00  0.0000000000000D+00
   236  2.3500000000000D+00  0.0000000000000D+00  0.0000000000000D+00
   237  2.3600000000000D+00  0.0000000000000D+00  0.0000000000000D+00
   238  2.3700000000000D+00  0.0000000000000D+00  0.0000000000000D+00
   239  2.3800000000000D+00  0.0000000000000D+00  0.0000000000000D+00
   240  2.3900000000000D+00  0.0000000000000D+00  0.0000000000000D+00
   241  2.4000000000000D+00  0.0000000000000D+00  0.0000000000000D+00
   242  2.4100000000000D+00  0.0000000000000D+00  0.0000000000000D+00
   243  2.4200000000000D+00  0.0000000000000D+00  0.0000000000000D+00
   244  2.4300000000000D+00  0.0000000000000D+00  0.0000000000000D+00
   245  2.4400000000000D+00  0.0000000000000D+00  0.0000000000000D+00
   246  2.4500000000000D+00  0.0000000000000D+00  0.0000000000000D+00
   247  2.4600000000000D+00  0.0000000000000D+00  0.0000000000000D+00
   248  2.4700000000000D+00  0.0000000000000D+00  0.0000000000000D+00
   249  2.4800000000000D+00  0.0000000000000D+00  0.0000000000000D+00
   250  2.4900000000000D+00  0.0000000000000D+00  0.0000000000000D+00
   251  2.5000000000000D+00  0.0000000000000D+00  0.0000000000000D+00
   252  2.5100000000000D+00  0.0000000000000D+00  0.0000000000000D+00
   253  2.5200000000000D+00  0.0000000000000D+00  0.0000000000000D+00
   254  2.5300000000000D+00  0.0000000000000D+00  0.0000000000000D+00
   255  2.5400000000000D+00  0.0000000000000D+00  0.0000000000000D+00
   256  2.5500000000000D+00  0.0000000000000D+00  0.0000000000000D+00
   257  2.5600000000000D+00  0.0000000000000D+00  0.0000000000000D+00
   258  2.5700000000000D+00  0.0000000000000D+00  0.0000000000000D+00
   259  2.5800000000000D+00  0.0000000000000D+00  0.0000000000000D+00
   260  2.5900000000000D+00  0.0000000000000D+00  0.0000000000000D+00
   261  2.6000000000000D+00  0.0000000000000D+00  0.0000000000000D+00
   262  2.6100000000000D+00  0.0000000000000D+00  0.0000000000000D+00
   263  2.6200000000000D+00  0.0000000000000D+00  0.0000000000000D+00
   264  2.6300000000000D+00  0.0000000000000D+00  0.0000000000000D+00
   265  2.6400000000000D+00  0.0000000000000D+00  0.0000000000000D+00
   266  2.6500000000000D+00  0.0000000000000D+00  0.0000000000000D+00
   267  2.6600000000000D+00  0.0000000000000D+00  0.0000000000000D+00
   268  2.6700000000000D+00  0.0000000000000D+00  0.0000000000000D+00
   269  2.6800000000000D+00  0.0000000000000D+00  0.0000000000000D+00
   270  2.6900000000000D+00  0.0000000000000D+00  0.0000000000000D+00
   271  2.7000000000000D+00  0.0000000000000D+00  0.0000000000000D+00
   272  2.7100000000000D+00  0.0000000000000D+00  0.0000000000000D+00
   273  2.7200000000000D+00  0.0000000000000D+00  0.0000000000000D+00
   274  2.7300000000000D+00  0.0000000000000D+00  0.0000000000000D+00
   275  2.7400000000000D+00  0.0000000000000D+00  0.0000000000000D+00
   276  2.7500000000000D+00  0.0000000000000D+00  0.0000000000000D+00
   277  2.7600000000000D+00  0.0000000000000D+00  0.0000000000000D+00
   278  2.7700000000000D+00  0.0000000000000D+00  0.0000000000000D+00
   279  2.7800000000000D+00  0.0000000000000D+00  0.0000000000000D+00
   280  2.7900000000000D+00  0.0000000000000D+00  0.0000000000000D+00
   281  2.8000000000000D+00  0.0000000000000D+00  0.0000000000000D+00
   282  2.8100000000000D+00  0.0000000000000D+00  0.0000000000000D+00
   283  2.8200000000000D+00  0.0000000000000D+00  0.0000000000000D+00
   284  2.8300000000000D+00  0.0000000000000D+00  0.0000000000000D+00
   285  2.8400000000000D+00  0.0000000000000D+00  0.0000000000000D+00
   286  2.8500000000000D+00  0.0000000000000D+00  0.0000000000000D+00
   287  2.8600000000000D+00  0.0000000000000D+00  0.0000000000000D+00
   288  2.8700000000000D+00  0.0000000000000D+00  0.0000000000000D+00
   289  2.8800000000000D+00  0.0000000000000D+00  0.0000000000000D+00
   290  2.8900000000000D+00  0.0000000000000D+00  0.0000000000000D+00
   291  2.9000000000000D+00  0.0000000000000D+00  0.0000000000000D+00
   292  2.9100000000000D+00  0.0000000000000D+00  0.0000000000000D+00
   293  2.9200000000000D+00  0.0000000000000D+00  0.0000000000000D+00
   294  2.9300000000000D+00  0.0000000000000D+00  0.0000000000000D+00
   295  2.9400000000000D+00  0.0000000000000D+00  0.0000000000000D+00
   296  2.9500000000000D+00  0.0000000000000D+00  0.0000000000000D+00
   297  2.9600000000000D+00  0.0000000000000D+00  0.0000000000000D+00
   298  2.9700000000000D+00  0.0000000000000D+00  0.0000000000000D+00
   299  2.9800000000000D+00  0.0000000000000D+00  0.0000000000000D+00
   300  2.9900000000000D+00  0.0000000000000D+00  0.0000000000000D+00
   301  3.0000000000000D+00  0.0000000000000D+00  0.0000000000000D+00
   302  3.0100000000000D+00  0.0000000000000D+00  0.0000000000000D+00
   303  3.0200000000000D+00  0.0000000000000D+00  0.0000000000000D+00
   304  3.0300000000000D+00  0.0000000000000D+00  0.0000000000000D+00
   305  3.0400000000000D+00  0.0000000000000D+00  0.0000000000000D+00
   306  3.0500000000000D+00  0.0000000000000D+00  0.0000000000000D+00
   307  3.0600000000000D+00  0.0000000000000D+00  0.0000000000000D+00
   308  3.0700000000000D+00  0.0000000000000D+00  0.0000000000000D+00
   309  3.0800000000000D+00  0.0000000000000D+00  0.0000000000000D+00
   310  3.0900000000000D+00  0.0000000000000D+00  0.0000000000000D+00
   311  3.1000000000000D+00  0.0000000000000D+00  0.0000000000000D+00
   312  3.1100000000000D+00  0.0000000000000D+00  0.0000000000000D+00
   313  3.1200000000000D+00  0.0000000000000D+00  0.0000000000000D+00
   314  3.1300000000000D+00  0.0000000000000D+00  0.0000000000000D+00
   315  3.1400000000000D+00  0.0000000000000D+00  0.0000000000000D+00
   316  3.1500000000000D+00  0.0000000000000D+00  0.0000000000000D+00
   317  3.1600000000000D+00  0.0000000000000D+00  0.0000000000000D+00
   318  3.1700000000000D+00  0.0000000000000D+00  0.0000000000000D+00
   319  3.1800000000000D+00  0.0000000000000D+00  0.0000000000000D+00
   320  3.1900000000000D+00  0.0000000000000D+00  0.0000000000000D+00
   321  3.2000000000000D+00  0.0000000000000D+00  0.0000000000000D+00
   322  3.2100000000000D+00  0.0000000000000D+00  0.0000000000000D+00
   323  3.2200000000000D+00  0.0000000000000D+00  0.0000000000000D+00
   324  3.2300000000000D+00  0.0000000000000D+00  0.0000000000000D+00
   325  3.2400000000000D+00  0.0000000000000D+00  0.0000000000000D+00
   326  3.2500000000000D+00  0.0000000000000D+00  0.0000000000000D+00
   327  3.2600000000000D+00  0.0000000000000D+00  0.0000000000000D+00
   328  3.2700000000000D+00  0.0000000000000D+00  0.0000000000000D+00
   329  3.2800000000000D+00  0.0000000000000D+00  0.0000000000000D+00
   330  3.2900000000000D+00  0.0000000000000D+00  0.0000000000000D+00
   331  3.3000000000000D+00  0.0000000000000D+00  0.0000000000000D+00
   332  3.3100000000000D+00  0.0000000000000D+00  0.0000000000000D+00
   333  3.3200000000000D+00  0.0000000000000D+00  0.0000000000000D+00
   334  3.3300000000000D+00  0.0000000000000D+00  0.0000000000000D+00
   335  3.3400000000000D+00  0.0000000000000D+00  0.0000000000000D+00
   336  3.3500000000000D+00  0.0000000000000D+00  0.0000000000000D+00
   337  3.3600000000000D+00  0.0000000000000D+00  0.0000000000000D+00
   338  3.3700000000000D+00  0.0000000000000D+00  0.0000000000000D+00
   339  3.3800000000000D+00  0.0000000000000D+00  0.0000000000000D+00
   340  3.3900000000000D+00  0.0000000000000D+00  0.0000000000000D+00
   341  3.4000000000000D+00  0.0000000000000D+00  0.0000000000000D+00
   342  3.4100000000000D+00  0.0000000000000D+00  0.0000000000000D+00
   343  3.4200000000000D+00  0.0000000000000D+00  0.0000000000000D+00
   344  3.4300000000000D+00  0.0000000000000D+00  0.0000000000000D+00
   345  3.4400000000000D+00  0.0000000000000D+00  0.0000000000000D+00
   346  3.4500000000000D+00  0.0000000000000D+00  0.0000000000000D+00
   347  3.4600000000000D+00  0.0000000000000D+00  0.0000000000000D+00
   348  3.4700000000000D+00  0.0000000000000D+00  0.0000000000000D+00
   349  3.4800000000000D+00  0.0000000000000D+00  0.0000000000000D+00
   350  3.4900000000000D+00  0.0000000000000D+00  0.0000000000000D+00
   351  3.5000000000000D+00  0.0000000000000D+00  0.0000000000000D+00
   352  3.5100000000000D+00  0.0000000000000D+00  0.0000000000000D+00
   353  3.5200000000000D+00  0.0000000000000D+00  0.0000000000000D+00
   354  3.5300000000000D+00  0.0000000000000D+00  0.0000000000000D+00
   355  3.5400000000000D+00  0.0000000000000D+00  0.0000000000000D+00
   356  3.5500000000000D+00  0.0000000000000D+00  0.0000000000000D+00
   357  3.5600000000000D+00  0.0000000000000D+00  0.0000000000000D+00
   358  3.5700000000000D+00  0.0000000000000D+00  0.0000000000000D+00
   359  3.5800000000000D+00  0.0000000000000D+00  0.0000000000000D+00
   360  3.5900000000000D+00  0.0000000000000D+00  0.0000000000000D+00
   361  3.6000000000000D+00  0.0000000000000D+00  0.0000000000000D+00
   362  3.6100000000000D+00  0.0000000000000D+00  0.0000000000000D+00
   363  3.6200000000000D+00  0.0000000000000D+00  0.0000000000000D+00
   364  3.6300000000000D+00  0.0000000000000D+00  0.0000000000000D+00
   365  3.6400000000000D+00  0.0000000000000D+00  0.0000000000000D+00
   366  3.6500000000000D+00  0.0000000000000D+00  0.0000000000000D+00
   367  3.6600000000000D+00  0.0000000000000D+00  0.0000000000000D+00
   368  3.6700000000000D+00  0.0000000000000D+00  0.0000000000000D+00
   369  3.6800000000000D+00  0.0000000000000D+00  0.0000000000000D+00
   370  3.6900000000000D+00  0.0000000000000D+00  0.0000000000000D+00
   371  3.7000000000000D+00  0.0000000000000D+00  0.0000000000000D+00
   372  3.7100000000000D+00  0.0000000000000D+00  0.0000000000000D+00
   373  3.7200000000000D+00  0.0000000000000D+00  0.0000000000000D+00
   374  3.7300000000000D+00  0.0000000000000D+00  0.0000000000000D+00
   375  3.7400000000000D+00  0.0000000000000D+00  0.0000000000000D+00
   376  3.7500000000000D+00  0.0000000000000D+00  0.0000000000000D+00
   377  3.7600000000000D+00  0.0000000000000D+00  0.0000000000000D+00
   378  3.7700000000000D+00  0.0000000000000D+00  0.0000000000000D+00
   379  3.7800000000000D+00  0.0000000000000D+00  0.0000000000000D+00
   380  3.7900000000000D+00  0.0000000000000D+00  0.0000000000000D+00
   381  3.8000000000000D+00  0.0000000000000D+00  0.0000000000000D+00
   382  3.8100000000000D+00  0.0000000000000D+00  0.0000000000000D+00
   383  3.8200000000000D+00  0.0000000000000D+00  0.0000000000000D+00
   384  3.8300000000000D+00  0.0000000000000D+00  0.0000000000000D+00
   385  3.8400000000000D+00  0.0000000000000D+00  0.0000000000000D+00
   386  3.8500000000000D+00  0.0000000000000D+00  0.0000000000000D+00
   387  3.8600000000000D+00  0.0000000000000D+00  0.0000000000000D+00
   388  3.8700000000000D+00  0.0000000000000D+00  0.0000000000000D+00
   389  3.8800000000000D+00  0.0000000000000D+00  0.0000000000000D+00
   390  3.8900000000000D+00  0.0000000000000D+00  0.0000000000000D+00
   391  3.9000000000000D+00  0.0000000000000D+00  0.0000000000000D+00
   392  3.9100000000000D+00  0.0000000000000D+00  0.0000000000000D+00
   393  3.9200000000000D+00  0.0000000000000D+00  0.0000000000000D+00
   394  3.9300000000000D+00  0.0000000000000D+00  0.0000000000000D+00
   395  3.9400000000000D+00  0.0000000000000D+00  0.0000000000000D+00
   396  3.9500000000000D+00  0.0000000000000D+00  0.0000000000000D+00
   397  3.9600000000000D+00  0.0000000000000D+00  0.0000000000000D+00
   398  3.9700000000000D+00  0.0000000000000D+00  0.0000000000000D+00
   399  3.9800000000000D+00  0.0000000000000D+00  0.0000000000000D+00
   400  3.9900000000000D+00  0.0000000000000D+00  0.0000000000000D+00
   401  4.0000000000000D+00  0.0000000000000D+00  0.0000000000000D+00
   402  4.0100000000000D+00  0.0000000000000D+00  0.0000000000000D+00
   403  4.0200000000000D+00  0.0000000000000D+00  0.0000000000000D+00
   404  4.0300000000000D+00  0.0000000000000D+00  0.0000000000000D+00
   405  4.0400000000000D+00  0.0000000000000D+00  0.0000000000000D+00
   406  4.0500000000000D+00  0.0000000000000D+00  0.0000000000000D+00
   407  4.0600000000000D+00  0.0000000000000D+00  0.0000000000000D+00
   408  4.0700000000000D+00  0.0000000000000D+00  0.0000000000000D+00
   409  4.0800000000000D+00  0.0000000000000D+00  0.0000000000000D+00
   410  4.0900000000000D+00  0.0000000000000D+00  0.0000000000000D+00
   411  4.1000000000000D+00  0.0000000000000D+00  0.0000000000000D+00
   412  4.1100000000000D+00  0.0000000000000D+00  0.0000000000000D+00
   413  4.1200000000000D+00  0.0000000000000D+00  0.0000000000000D+00
   414  4.1300000000000D+00  0.0000000000000D+00  0.0000000000000D+00
   415  4.1400000000000D+00  0.0000000000000D+00  0.0000000000000D+00
   416  4.1500000000000D+00  0.0000000000000D+00  0.0000000000000D+00
   417  4.1600000000000D+00  0.0000000000000D+00  0.0000000000000D+00
   418  4.1700000000000D+00  0.0000000000000D+00  0.0000000000000D+00
   419  4.1800000000000D+00  0.0000000000000D+00  0.0000000000000D+00
   420  4.1900000000000D+00  0.0000000000000D+00  0.0000000000000D+00
   421  4.2000000000000D+00  0.0000000000000D+00  0.0000000000000D+00
   422  4.2100000000000D+00  0.0000000000000D+00  0.0000000000000D+00