Ga    ONCVPSP-3.3.0  r_core=   1.85767   1.81388   2.62545
     31.0000      3.0000      170607    zatom,zion,pspd
     8      11   2     4   600     0    pspcod,pspxc,lmax,lloc,mmax,r2well
  5.99000000  0.50000000  0.00000000    rchrg fchrg qchrg
     2     4     4     0    nproj
     3     1           extension_switch
     4     4     0    nprojso
   0                         6.8381285944146D-01  6.5491638877687D+00
     1  0.0000000000000D+00 -4.5747253207828D-11  2.0004470302482D-11
     2  1.0000000000000D-02 -9.2902837824223D-03  2.5284231113919D-02
     3  2.0000000000000D-02 -1.8618820041652D-02  5.0583274601675D-02
     4  3.0000000000000D-02 -2.8023483973185D-02  7.5911764268569D-02
     5  4.0000000000000D-02 -3.7541398447498D-02  1.0128397778813D-01
     6  5.0000000000000D-02 -4.7208563429981D-02  1.2671366114445D-01
     7  6.0000000000000D-02 -5.7059492067526D-02  1.5221385607016D-01
     8  7.0000000000000D-02 -6.7126855610348D-02  1.7779673145536D-01
     9  8.0000000000000D-02 -7.7441139291847D-02  2.0347341968230D-01
    10  9.0000000000000D-02 -8.8030311232837D-02  2.2925385881646D-01
    11  1.0000000000000D-01 -9.8919506368606D-02  2.5514664155452D-01
    12  1.1000000000000D-01 -1.1013072731989D-01  2.8115887179607D-01
    13  1.2000000000000D-01 -1.2168256404020D-01  3.0729602966725D-01
    14  1.3000000000000D-01 -1.3358993397467D-01  3.3356184578150D-01
    15  1.4000000000000D-01 -1.4586384435830D-01  3.5995818547617D-01
    16  1.5000000000000D-01 -1.5851117816616D-01  3.8648494371289D-01
    17  1.6000000000000D-01 -1.7153450510339D-01  4.1313995127520D-01
    18  1.7000000000000D-01 -1.8493191889232D-01  4.3991889283965D-01
    19  1.8000000000000D-01 -1.9869690197434D-01  4.6681523743551D-01
    20  1.9000000000000D-01 -2.1281821860007D-01  4.9382018174517D-01
    21  2.0000000000000D-01 -2.2727983713015D-01  5.2092260663092D-01
    22  2.1000000000000D-01 -2.4206088221376D-01  5.4810904720572D-01
    23  2.2000000000000D-01 -2.5713561735173D-01  5.7536367669583D-01
    24  2.3000000000000D-01 -2.7247345818856D-01  6.0266830427116D-01
    25  2.4000000000000D-01 -2.8803901671078D-01  6.3000238694657D-01
    26  2.5000000000000D-01 -3.0379217636243D-01  6.5734305558405D-01
    27  2.6000000000000D-01 -3.1968819791877D-01  6.8466515495120D-01
    28  2.7000000000000D-01 -3.3567785579104D-01  7.1194129771746D-01
    29  2.8000000000000D-01 -3.5170760426669D-01  7.3914193219579D-01
    30  2.9000000000000D-01 -3.6771977302259D-01  7.6623542356374D-01
    31  3.0000000000000D-01 -3.8365279108501D-01  7.9318814822612D-01
    32  3.1000000000000D-01 -3.9944143824835D-01  8.1996460091004D-01
    33  3.2000000000000D-01 -4.1501712280849D-01  8.4652751401421D-01
    34  3.3000000000000D-01 -4.3030818431375D-01  8.7283798866717D-01
    35  3.4000000000000D-01 -4.4524021989086D-01  8.9885563688426D-01
    36  3.5000000000000D-01 -4.5973643256319D-01  9.2453873415182D-01
    37  3.6000000000000D-01 -4.7371799984588D-01  9.4984438170733D-01
    38  3.7000000000000D-01 -4.8710446077878D-01  9.7472867773017D-01
    39  3.8000000000000D-01 -4.9981411944124D-01  9.9914689660478D-01
    40  3.9000000000000D-01 -5.1176446288814D-01  1.0230536753715D+00
    41  4.0000000000000D-01 -5.2287259134882D-01  1.0464032064366D+00
    42  4.1000000000000D-01 -5.3305565844655D-01  1.0691494355743D+00
    43  4.2000000000000D-01 -5.4223131912038D-01  1.0912462642203D+00
    44  4.3000000000000D-01 -5.5031818287056D-01  1.1126477550269D+00
    45  4.4000000000000D-01 -5.5723626989624D-01  1.1333083396264D+00
    46  4.5000000000000D-01 -5.6290746765832D-01  1.1531830275310D+00
    47  4.6000000000000D-01 -5.6725598537347D-01  1.1722276150863D+00
    48  4.7000000000000D-01 -5.7020880393544D-01  1.1903988933848D+00
    49  4.8000000000000D-01 -5.7169611875897D-01  1.2076548540492D+00
    50  4.9000000000000D-01 -5.7165177305914D-01  1.2239548917951D+00
    51  5.0000000000000D-01 -5.7001367910455D-01  1.2392600026971D+00
    52  5.1000000000000D-01 -5.6672422502721D-01  1.2535329770940D+00
    53  5.2000000000000D-01 -5.6173066482590D-01  1.2667385860954D+00
    54  5.3000000000000D-01 -5.5498548926794D-01  1.2788437606745D+00
    55  5.4000000000000D-01 -5.4644677547765D-01  1.2898177623688D+00
    56  5.5000000000000D-01 -5.3607851309200D-01  1.2996323446472D+00
    57  5.6000000000000D-01 -5.2385090497219D-01  1.3082619040455D+00
    58  5.7000000000000D-01 -5.0974064057750D-01  1.3156836202230D+00
    59  5.8000000000000D-01 -4.9373114023759D-01  1.3218775841443D+00
    60  5.9000000000000D-01 -4.7581276870133D-01  1.3268269136512D+00
    61  6.0000000000000D-01 -4.5598301648896D-01  1.3305178557513D+00
    62  6.1000000000000D-01 -4.3424664773688D-01  1.3329398750163D+00
    63  6.2000000000000D-01 -4.1061581339135D-01  1.3340857275552D+00
    64  6.3000000000000D-01 -3.8511012878500D-01  1.3339515201015D+00
    65  6.4000000000000D-01 -3.5775671481378D-01  1.3325367538274D+00
    66  6.5000000000000D-01 -3.2859020212058D-01  1.3298443525839D+00
    67  6.6000000000000D-01 -2.9765269788688D-01  1.3258806753403D+00
    68  6.7000000000000D-01 -2.6499371503288D-01  1.3206555126866D+00
    69  6.8000000000000D-01 -2.3067006382586D-01  1.3141820673424D+00
    70  6.9000000000000D-01 -1.9474570610234D-01  1.3064769187055D+00
    71  7.0000000000000D-01 -1.5729157251103D-01  1.2975599715559D+00
    72  7.1000000000000D-01 -1.1838534338885D-01  1.2874543891204D+00
    73  7.2000000000000D-01 -7.8111194082731D-02  1.2761865107857D+00
    74  7.3000000000000D-01 -3.6559505729450D-02  1.2637857548339D+00
    75  7.4000000000000D-01  6.1734572985307D-03  1.2502845066559D+00
    76  7.5000000000000D-01  4.9985901883830D-02  1.2357179929809D+00
    77  7.6000000000000D-01  9.4770891009744D-02  1.2201241427351D+00
    78  7.7000000000000D-01  1.4041675720203D-01  1.2035434352220D+00
    79  7.8000000000000D-01  1.8680754264008D-01  1.1860187363852D+00
    80  7.9000000000000D-01  2.3382346385085D-01  1.1675951239843D+00
    81  8.0000000000000D-01  2.8134139875045D-01  1.1483197025770D+00
    82  8.1000000000000D-01  3.2923539366130D-01  1.1282414092617D+00
    83  8.2000000000000D-01  3.7737718780553D-01  1.1074108111850D+00
    84  8.3000000000000D-01  4.2563675266495D-01  1.0858798958721D+00
    85  8.4000000000000D-01  4.7388284349734D-01  1.0637018554747D+00
    86  8.5000000000000D-01  5.2198356021575D-01  1.0409308660750D+00
    87  8.6000000000000D-01  5.6980691476708D-01  1.0176218632072D+00
    88  8.7000000000000D-01  6.1722140209282D-01  9.9383031478903D-01
    89  8.8000000000000D-01  6.6409657171706D-01  9.6961199266842D-01
    90  8.9000000000000D-01  7.1030359698485D-01  9.4502274400250D-01
    91  9.0000000000000D-01  7.5571583896892D-01  9.2011826369084D-01
    92  9.1000000000000D-01  8.0020940207471D-01  8.9495386907976D-01
    93  9.2000000000000D-01  8.4366367840160D-01  8.6958427814539D-01
    94  9.3000000000000D-01  8.8596187796339D-01  8.4406339234547D-01
    95  9.4000000000000D-01  9.2699154193236D-01  8.1844408530587D-01
    96  9.5000000000000D-01  9.6664503615027D-01  7.9277799847631D-01
    97  9.6000000000000D-01  1.0048200222408D+00  7.6711534485307D-01
    98  9.7000000000000D-01  1.0414199037698D+00  7.4150472182148D-01
    99  9.8000000000000D-01  1.0763542450236D+00  7.1599293412085D-01
   100  9.9000000000000D-01  1.1095391601111D+00  6.9062482787842D-01
   101  1.0000000000000D+00  1.1408976702522D+00  6.6544313659688D-01
   102  1.0100000000000D+00  1.1703600272749D+00  6.4048833991269D-01
   103  1.0200000000000D+00  1.1978640015247D+00  6.1579853586946D-01
   104  1.0300000000000D+00  1.2233551325725D+00  5.9140932737570D-01
   105  1.0400000000000D+00  1.2467869413069D+00  5.6735372343459D-01
   106  1.0500000000000D+00  1.2681211022027D+00  5.4366205564813D-01
   107  1.0600000000000D+00  1.2873275747687D+00  5.2036191041243D-01
   108  1.0700000000000D+00  1.3043846933996D+00  4.9747807712958D-01
   109  1.0800000000000D+00  1.3192792150843D+00  4.7503251266764D-01
   110  1.0900000000000D+00  1.3320063246297D+00  4.5304432221622D-01
   111  1.1000000000000D+00  1.3425695973227D+00  4.3152975657651D-01
   112  1.1100000000000D+00  1.3509809191550D+00  4.1050222584191D-01
   113  1.1200000000000D+00  1.3572603649895D+00  3.8997232932106D-01
   114  1.1300000000000D+00  1.3614360352409D+00  3.6994790147568D-01
   115  1.1400000000000D+00  1.3635438519031D+00  3.5043407353974D-01
   116  1.1500000000000D+00  1.3636273149558D+00  3.3143335040320D-01
   117  1.1600000000000D+00  1.3617372204172D+00  3.1294570224964D-01
   118  1.1700000000000D+00  1.3579313414677D+00  2.9496867037062D-01
   119  1.1800000000000D+00  1.3522740743241D+00  2.7749748647786D-01
   120  1.1900000000000D+00  1.3448360507005D+00  2.6052520476823D-01
   121  1.2000000000000D+00  1.3356937188845D+00  2.4404284592029D-01
   122  1.2100000000000D+00  1.3249288955735D+00  2.2803955215352D-01
   123  1.2200000000000D+00  1.3126282908421D+00  2.1250275238875D-01
   124  1.2300000000000D+00  1.2988830087061D+00  1.9741833651253D-01
   125  1.2400000000000D+00  1.2837880258371D+00  1.8277083771084D-01
   126  1.2500000000000D+00  1.2674416511561D+00  1.6854362176900D-01
   127  1.2600000000000D+00  1.2499449690853D+00  1.5471908221480D-01
   128  1.2700000000000D+00  1.2314012692888D+00  1.4127884016164D-01
   129  1.2800000000000D+00  1.2119154658339D+00  1.2820394766998D-01
   130  1.2900000000000D+00  1.1915935087063D+00  1.1547509344573D-01
   131  1.3000000000000D+00  1.1705417906331D+00  1.0307280968838D-01
   132  1.3100000000000D+00  1.1488665521964D+00  9.0977678890640D-02
   133  1.3200000000000D+00  1.1266732881393D+00  7.9170539429445D-02
   134  1.3300000000000D+00  1.1040661578088D+00  6.7632688769652D-02
   135  1.3400000000000D+00  1.0811474025833D+00  5.6346083145913D-02
   136  1.3500000000000D+00  1.0580167729829D+00  4.5293532653673D-02
   137  1.3600000000000D+00  1.0347709683000D+00  3.4458890619893D-02
   138  1.3700000000000D+00  1.0115030911896D+00  2.3827236297274D-02
   139  1.3800000000000D+00  9.8830211971844D-01  1.3385049899839D-02
   140  1.3900000000000D+00  9.6525239931685D-01  3.1203790207749D-03
   141  1.4000000000000D+00  9.4243315655498D-01 -6.9770043010125D-03
   142  1.4100000000000D+00  9.1991803705388D-01 -1.6915456767578D-02
   143  1.4200000000000D+00  8.9777466917380D-01 -2.6701327877058D-02
   144  1.4300000000000D+00  8.7606425510189D-01 -3.6338835455892D-02
   145  1.4400000000000D+00  8.5484119110895D-01 -4.5829953337640D-02
   146  1.4500000000000D+00  8.3415271770797D-01 -5.5174311420734D-02
   147  1.4600000000000D+00  8.1403860137477D-01 -6.4369108728391D-02
   148  1.4700000000000D+00  7.9453084816819D-01 -7.3409039536455D-02
   149  1.4800000000000D+00  7.7565345010414D-01 -8.2286232853537D-02
   150  1.4900000000000D+00  7.5742216482165D-01 -9.0990205403261D-02
   151  1.5000000000000D+00  7.3984432821688D-01 -9.9507827899788D-02
   152  1.5100000000000D+00  7.2291870084627D-01 -1.0782330487577D-01
   153  1.5200000000000D+00  7.0663534684215D-01 -1.1591816746554D-01
   154  1.5300000000000D+00  6.9097554590343D-01 -1.2377127930273D-01
   155  1.5400000000000D+00  6.7591173683815D-01 -1.3135885482521D-01
   156  1.5500000000000D+00  6.6140749240867D-01 -1.3865448980977D-01
   157  1.5600000000000D+00  6.4741752071270D-01 -1.4562920303788D-01
   158  1.5700000000000D+00  6.3388771426054D-01 -1.5225149154537D-01
   159  1.5800000000000D+00  6.2075515910884D-01 -1.5848738684990D-01
   160  1.5900000000000D+00  6.0794836378670D-01 -1.6430054911159D-01
   161  1.6000000000000D+00  5.9538724758692D-01 -1.6965232932937D-01
   162  1.6100000000000D+00  5.8298291522296D-01 -1.7450181467846D-01
   163  1.6200000000000D+00  5.7063888902685D-01 -1.7880607015627D-01
   164  1.6300000000000D+00  5.5825221228771D-01 -1.8252036574274D-01
   165  1.6400000000000D+00  5.4571470765831D-01 -1.8559847095466D-01
   166  1.6500000000000D+00  5.3291451376690D-01 -1.8799298741796D-01
   167  1.6600000000000D+00  5.1973623596932D-01 -1.8965550744447D-01
   168  1.6700000000000D+00  5.0606131231891D-01 -1.9053681004866D-01
   169  1.6800000000000D+00  4.9176868866614D-01 -1.9058709001089D-01
   170  1.6900000000000D+00  4.7673527006633D-01 -1.8975616246950D-01
   171  1.7000000000000D+00  4.6083646014539D-01 -1.8799367748905D-01
   172  1.7100000000000D+00  4.4394667152983D-01 -1.8524932978317D-01
   173  1.7200000000000D+00  4.2593983423335D-01 -1.8147306592172D-01
   174  1.7300000000000D+00  4.0668989499174D-01 -1.7661528745529D-01
   175  1.7400000000000D+00  3.8607130307661D-01 -1.7062704825272D-01
   176  1.7500000000000D+00  3.6395948129266D-01 -1.6346024546959D-01
   177  1.7600000000000D+00  3.4023127671920D-01 -1.5506780208238D-01
   178  1.7700000000000D+00  3.1476539147716D-01 -1.4540384099413D-01
   179  1.7800000000000D+00  2.8744278705882D-01 -1.3442384824574D-01
   180  1.7900000000000D+00  2.5814706393585D-01 -1.2208482589842D-01
   181  1.8000000000000D+00  2.2656165620803D-01 -1.0824312319545D-01
   182  1.8100000000000D+00  1.9304202282965D-01 -9.3093642222763D-02
   183  1.8200000000000D+00  1.5865523120995D-01 -7.7188080104244D-02
   184  1.8300000000000D+00  1.2059225398411D-01 -5.9131019866817D-02
   185  1.8400000000000D+00  7.4333066543315D-02 -3.6671440000598D-02
   186  1.8500000000000D+00  2.6463883810794D-02 -1.3128449724179D-02
   187  1.8600000000000D+00 -4.1688492421236D-03  2.0277678644366D-03
   188  1.8700000000000D+00 -7.9247110046873D-03  3.9066867609795D-03
   189  1.8800000000000D+00  1.3940741995093D-05 -6.8511876593949D-06
   190  1.8900000000000D+00  2.1009294106487D-03 -1.0335865818206D-03
   191  1.9000000000000D+00  6.4494007487669D-04 -3.1748817122916D-04
   192  1.9100000000000D+00 -2.5232990028141D-04  1.2331016536699D-04
   193  1.9200000000000D+00 -1.7864039301347D-04  8.7328251502340D-05
   194  1.9300000000000D+00  5.0870603189914D-07 -1.8331066418924D-07
   195  1.9400000000000D+00  6.8874545035205D-07 -2.4818731849908D-07
   196  1.9500000000000D+00  0.0000000000000D+00  0.0000000000000D+00
   197  1.9600000000000D+00  0.0000000000000D+00  0.0000000000000D+00
   198  1.9700000000000D+00  0.0000000000000D+00  0.0000000000000D+00
   199  1.9800000000000D+00  0.0000000000000D+00  0.0000000000000D+00
   200  1.9900000000000D+00  0.0000000000000D+00  0.0000000000000D+00
   201  2.0000000000000D+00  0.0000000000000D+00  0.0000000000000D+00
   202  2.0100000000000D+00  0.0000000000000D+00  0.0000000000000D+00
   203  2.0200000000000D+00  0.0000000000000D+00  0.0000000000000D+00
   204  2.0300000000000D+00  0.0000000000000D+00  0.0000000000000D+00
   205  2.0400000000000D+00  0.0000000000000D+00  0.0000000000000D+00
   206  2.0500000000000D+00  0.0000000000000D+00  0.0000000000000D+00
   207  2.0600000000000D+00  0.0000000000000D+00  0.0000000000000D+00
   208  2.0700000000000D+00  0.0000000000000D+00  0.0000000000000D+00
   209  2.0800000000000D+00  0.0000000000000D+00  0.0000000000000D+00
   210  2.0900000000000D+00  0.0000000000000D+00  0.0000000000000D+00
   211  2.1000000000000D+00  0.0000000000000D+00  0.0000000000000D+00
   212  2.1100000000000D+00  0.0000000000000D+00  0.0000000000000D+00
   213  2.1200000000000D+00  0.0000000000000D+00  0.0000000000000D+00
   214  2.1300000000000D+00  0.0000000000000D+00  0.0000000000000D+00
   215  2.1400000000000D+00  0.0000000000000D+00  0.0000000000000D+00
   216  2.1500000000000D+00  0.0000000000000D+00  0.0000000000000D+00
   217  2.1600000000000D+00  0.0000000000000D+00  0.0000000000000D+00
   218  2.1700000000000D+00  0.0000000000000D+00  0.0000000000000D+00
   219  2.1800000000000D+00  0.0000000000000D+00  0.0000000000000D+00
   220  2.1900000000000D+00  0.0000000000000D+00  0.0000000000000D+00
   221  2.2000000000000D+00  0.0000000000000D+00  0.0000000000000D+00
   222  2.2100000000000D+00  0.0000000000000D+00  0.0000000000000D+00
   223  2.2200000000000D+00  0.0000000000000D+00  0.0000000000000D+00
   224  2.2300000000000D+00  0.0000000000000D+00  0.0000000000000D+00
   225  2.2400000000000D+00  0.0000000000000D+00  0.0000000000000D+00
   226  2.2500000000000D+00  0.0000000000000D+00  0.0000000000000D+00
   227  2.2600000000000D+00  0.0000000000000D+00  0.0000000000000D+00
   228  2.2700000000000D+00  0.0000000000000D+00  0.0000000000000D+00
   229  2.2800000000000D+00  0.0000000000000D+00  0.0000000000000D+00
   230  2.2900000000000D+00  0.0000000000000D+00  0.0000000000000D+00
   231  2.3000000000000D+00  0.0000000000000D+00  0.0000000000000D+00
   232  2.3100000000000D+00  0.0000000000000D+00  0.0000000000000D+00
   233  2.3200000000000D+00  0.0000000000000D+00  0.0000000000000D+00
   234  2.3300000000000D+00  0.0000000000000D+00  0.0000000000000D+00
   235  2.3400000000000D+00  0.0000000000000D+00  0.0000000000000D+00
   236  2.3500000000000D+00  0.0000000000000D+00  0.0000000000000D+00
   237  2.3600000000000D+00  0.0000000000000D+00  0.0000000000000D+00
   238  2.3700000000000D+00  0.0000000000000D+00  0.0000000000000D+00
   239  2.3800000000000D+00  0.0000000000000D+00  0.0000000000000D+00
   240  2.3900000000000D+00  0.0000000000000D+00  0.0000000000000D+00
   241  2.4000000000000D+00  0.0000000000000D+00  0.0000000000000D+00
   242  2.4100000000000D+00  0.0000000000000D+00  0.0000000000000D+00
   243  2.4200000000000D+00  0.0000000000000D+00  0.0000000000000D+00
   244  2.4300000000000D+00  0.0000000000000D+00  0.0000000000000D+00
   245  2.4400000000000D+00  0.0000000000000D+00  0.0000000000000D+00
   246  2.4500000000000D+00  0.0000000000000D+00  0.0000000000000D+00
   247  2.4600000000000D+00  0.0000000000000D+00  0.0000000000000D+00
   248  2.4700000000000D+00  0.0000000000000D+00  0.0000000000000D+00
   249  2.4800000000000D+00  0.0000000000000D+00  0.0000000000000D+00
   250  2.4900000000000D+00  0.0000000000000D+00  0.0000000000000D+00
   251  2.5000000000000D+00  0.0000000000000D+00  0.0000000000000D+00
   252  2.5100000000000D+00  0.0000000000000D+00  0.0000000000000D+00
   253  2.5200000000000D+00  0.0000000000000D+00  0.0000000000000D+00
   254  2.5300000000000D+00  0.0000000000000D+00  0.0000000000000D+00
   255  2.5400000000000D+00  0.0000000000000D+00  0.0000000000000D+00
   256  2.5500000000000D+00  0.0000000000000D+00  0.0000000000000D+00
   257  2.5600000000000D+00  0.0000000000000D+00  0.0000000000000D+00
   258  2.5700000000000D+00  0.0000000000000D+00  0.0000000000000D+00
   259  2.5800000000000D+00  0.0000000000000D+00  0.0000000000000D+00
   260  2.5900000000000D+00  0.0000000000000D+00  0.0000000000000D+00
   261  2.6000000000000D+00  0.0000000000000D+00  0.0000000000000D+00
   262  2.6100000000000D+00  0.0000000000000D+00  0.0000000000000D+00
   263  2.6200000000000D+00  0.0000000000000D+00  0.0000000000000D+00
   264  2.6300000000000D+00  0.0000000000000D+00  0.0000000000000D+00
   265  2.6400000000000D+00  0.0000000000000D+00  0.0000000000000D+00
   266  2.6500000000000D+00  0.0000000000000D+00  0.0000000000000D+00
   267  2.6600000000000D+00  0.0000000000000D+00  0.0000000000000D+00
   268  2.6700000000000D+00  0.0000000000000D+00  0.0000000000000D+00
   269  2.6800000000000D+00  0.0000000000000D+00  0.0000000000000D+00
   270  2.6900000000000D+00  0.0000000000000D+00  0.0000000000000D+00
   271  2.7000000000000D+00  0.0000000000000D+00  0.0000000000000D+00
   272  2.7100000000000D+00  0.0000000000000D+00  0.0000000000000D+00
   273  2.7200000000000D+00  0.0000000000000D+00  0.0000000000000D+00
   274  2.7300000000000D+00  0.0000000000000D+00  0.0000000000000D+00
   275  2.7400000000000D+00  0.0000000000000D+00  0.0000000000000D+00
   276  2.7500000000000D+00  0.0000000000000D+00  0.0000000000000D+00
   277  2.7600000000000D+00  0.0000000000000D+00  0.0000000000000D+00
   278  2.7700000000000D+00  0.0000000000000D+00  0.0000000000000D+00
   279  2.7800000000000D+00  0.0000000000000D+00  0.0000000000000D+00
   280  2.7900000000000D+00  0.0000000000000D+00  0.0000000000000D+00
   281  2.8000000000000D+00  0.0000000000000D+00  0.0000000000000D+00
   282  2.8100000000000D+00  0.0000000000000D+00  0.0000000000000D+00
   283  2.8200000000000D+00  0.0000000000000D+00  0.0000000000000D+00
   284  2.8300000000000D+00  0.0000000000000D+00  0.0000000000000D+00
   285  2.8400000000000D+00  0.0000000000000D+00  0.0000000000000D+00
   286  2.8500000000000D+00  0.0000000000000D+00  0.0000000000000D+00
   287  2.8600000000000D+00  0.0000000000000D+00  0.0000000000000D+00
   288  2.8700000000000D+00  0.0000000000000D+00  0.0000000000000D+00
   289  2.8800000000000D+00  0.0000000000000D+00  0.0000000000000D+00
   290  2.8900000000000D+00  0.0000000000000D+00  0.0000000000000D+00
   291  2.9000000000000D+00  0.0000000000000D+00  0.0000000000000D+00
   292  2.9100000000000D+00  0.0000000000000D+00  0.0000000000000D+00
   293  2.9200000000000D+00  0.0000000000000D+00  0.0000000000000D+00
   294  2.9300000000000D+00  0.0000000000000D+00  0.0000000000000D+00
   295  2.9400000000000D+00  0.0000000000000D+00  0.0000000000000D+00
   296  2.9500000000000D+00  0.0000000000000D+00  0.0000000000000D+00
   297  2.9600000000000D+00  0.0000000000000D+00  0.0000000000000D+00
   298  2.9700000000000D+00  0.0000000000000D+00  0.0000000000000D+00
   299  2.9800000000000D+00  0.0000000000000D+00  0.0000000000000D+00
   300  2.9900000000000D+00  0.0000000000000D+00  0.0000000000000D+00
   301  3.0000000000000D+00  0.0000000000000D+00  0.0000000000000D+00
   302  3.0100000000000D+00  0.0000000000000D+00  0.0000000000000D+00
   303  3.0200000000000D+00  0.0000000000000D+00  0.0000000000000D+00
   304  3.0300000000000D+00  0.0000000000000D+00  0.0000000000000D+00
   305  3.0400000000000D+00  0.0000000000000D+00  0.0000000000000D+00
   306  3.0500000000000D+00  0.0000000000000D+00  0.0000000000000D+00
   307  3.0600000000000D+00  0.0000000000000D+00  0.0000000000000D+00
   308  3.0700000000000D+00  0.0000000000000D+00  0.0000000000000D+00
   309  3.0800000000000D+00  0.0000000000000D+00  0.0000000000000D+00
   310  3.0900000000000D+00  0.0000000000000D+00  0.0000000000000D+00
   311  3.1000000000000D+00  0.0000000000000D+00  0.0000000000000D+00
   312  3.1100000000000D+00  0.0000000000000D+00  0.0000000000000D+00
   313  3.1200000000000D+00  0.0000000000000D+00  0.0000000000000D+00
   314  3.1300000000000D+00  0.0000000000000D+00  0.0000000000000D+00
   315  3.1400000000000D+00  0.0000000000000D+00  0.0000000000000D+00
   316  3.1500000000000D+00  0.0000000000000D+00  0.0000000000000D+00
   317  3.1600000000000D+00  0.0000000000000D+00  0.0000000000000D+00
   318  3.1700000000000D+00  0.0000000000000D+00  0.0000000000000D+00
   319  3.1800000000000D+00  0.0000000000000D+00  0.0000000000000D+00
   320  3.1900000000000D+00  0.0000000000000D+00  0.0000000000000D+00
   321  3.2000000000000D+00  0.0000000000000D+00  0.0000000000000D+00
   322  3.2100000000000D+00  0.0000000000000D+00  0.0000000000000D+00
   323  3.2200000000000D+00  0.0000000000000D+00  0.0000000000000D+00
   324  3.2300000000000D+00  0.0000000000000D+00  0.0000000000000D+00
   325  3.2400000000000D+00  0.0000000000000D+00  0.0000000000000D+00
   326  3.2500000000000D+00  0.0000000000000D+00  0.0000000000000D+00
   327  3.2600000000000D+00  0.0000000000000D+00  0.0000000000000D+00
   328  3.2700000000000D+00  0.0000000000000D+00  0.0000000000000D+00
   329  3.2800000000000D+00  0.0000000000000D+00  0.0000000000000D+00
   330  3.2900000000000D+00  0.0000000000000D+00  0.0000000000000D+00
   331  3.3000000000000D+00  0.0000000000000D+00  0.0000000000000D+00
   332  3.3100000000000D+00  0.0000000000000D+00  0.0000000000000D+00
   333  3.3200000000000D+00  0.0000000000000D+00  0.0000000000000D+00
   334  3.3300000000000D+00  0.0000000000000D+00  0.0000000000000D+00
   335  3.3400000000000D+00  0.0000000000000D+00  0.0000000000000D+00
   336  3.3500000000000D+00  0.0000000000000D+00  0.0000000000000D+00
   337  3.3600000000000D+00  0.0000000000000D+00  0.0000000000000D+00
   338  3.3700000000000D+00  0.0000000000000D+00  0.0000000000000D+00
   339  3.3800000000000D+00  0.0000000000000D+00  0.0000000000000D+00
   340  3.3900000000000D+00  0.0000000000000D+00  0.0000000000000D+00
   341  3.4000000000000D+00  0.0000000000000D+00  0.0000000000000D+00
   342  3.4100000000000D+00  0.0000000000000D+00  0.0000000000000D+00
   343  3.4200000000000D+00  0.0000000000000D+00  0.0000000000000D+00
   344  3.4300000000000D+00  0.0000000000000D+00  0.0000000000000D+00
   345  3.4400000000000D+00  0.0000000000000D+00  0.0000000000000D+00
   346  3.4500000000000D+00  0.0000000000000D+00  0.0000000000000D+00
   347  3.4600000000000D+00  0.0000000000000D+00  0.0000000000000D+00
   348  3.4700000000000D+00  0.0000000000000D+00  0.0000000000000D+00
   349  3.4800000000000D+00  0.0000000000000D+00  0.0000000000000D+00
   350  3.4900000000000D+00  0.0000000000000D+00  0.0000000000000D+00
   351  3.5000000000000D+00  0.0000000000000D+00  0.0000000000000D+00
   352  3.5100000000000D+00  0.0000000000000D+00  0.0000000000000D+00
   353  3.5200000000000D+00  0.0000000000000D+00  0.0000000000000D+00
   354  3.5300000000000D+00  0.0000000000000D+00  0.0000000000000D+00
   355  3.5400000000000D+00  0.0000000000000D+00  0.0000000000000D+00
   356  3.5500000000000D+00  0.0000000000000D+00  0.0000000000000D+00
   357  3.5600000000000D+00  0.0000000000000D+00  0.0000000000000D+00
   358  3.5700000000000D+00  0.0000000000000D+00  0.0000000000000D+00
   359  3.5800000000000D+00  0.0000000000000D+00  0.0000000000000D+00
   360  3.5900000000000D+00  0.0000000000000D+00  0.0000000000000D+00
   361  3.6000000000000D+00  0.0000000000000D+00  0.0000000000000D+00
   362  3.6100000000000D+00  0.0000000000000D+00  0.0000000000000D+00
   363  3.6200000000000D+00  0.0000000000000D+00  0.0000000000000D+00
   364  3.6300000000000D+00  0.0000000000000D+00  0.0000000000000D+00
   365  3.6400000000000D+00  0.0000000000000D+00  0.0000000000000D+00
   366  3.6500000000000D+00  0.0000000000000D+00  0.0000000000000D+00
   367  3.6600000000000D+00  0.0000000000000D+00  0.0000000000000D+00
   368  3.6700000000000D+00  0.0000000000000D+00  0.0000000000000D+00
   369  3.6800000000000D+00  0.0000000000000D+00  0.0000000000000D+00
   370  3.6900000000000D+00  0.0000000000000D+00  0.0000000000000D+00
   371  3.7000000000000D+00  0.0000000000000D+00  0.0000000000000D+00
   372  3.7100000000000D+00  0.0000000000000D+00  0.0000000000000D+00
   373  3.7200000000000D+00  0.0000000000000D+00  0.0000000000000D+00
   374  3.7300000000000D+00  0.0000000000000D+00  0.0000000000000D+00
   375  3.7400000000000D+00  0.0000000000000D+00  0.0000000000000D+00
   376  3.7500000000000D+00  0.0000000000000D+00  0.0000000000000D+00
   377  3.7600000000000D+00  0.0000000000000D+00  0.0000000000000D+00
   378  3.7700000000000D+00  0.0000000000000D+00  0.0000000000000D+00
   379  3.7800000000000D+00  0.0000000000000D+00  0.0000000000000D+00
   380  3.7900000000000D+00  0.0000000000000D+00  0.0000000000000D+00
   381  3.8000000000000D+00  0.0000000000000D+00  0.0000000000000D+00
   382  3.8100000000000D+00  0.0000000000000D+00  0.0000000000000D+00
   383  3.8200000000000D+00  0.0000000000000D+00  0.0000000000000D+00
   384  3.8300000000000D+00  0.0000000000000D+00  0.0000000000000D+00
   385  3.8400000000000D+00  0.0000000000000D+00  0.0000000000000D+00
   386  3.8500000000000D+00  0.0000000000000D+00  0.0000000000000D+00
   387  3.8600000000000D+00  0.0000000000000D+00  0.0000000000000D+00
   388  3.8700000000000D+00  0.0000000000000D+00  0.0000000000000D+00
   389  3.8800000000000D+00  0.0000000000000D+00  0.0000000000000D+00
   390  3.8900000000000D+00  0.0000000000000D+00  0.0000000000000D+00
   391  3.9000000000000D+00  0.0000000000000D+00  0.0000000000000D+00
   392  3.9100000000000D+00  0.0000000000000D+00  0.0000000000000D+00
   393  3.9200000000000D+00  0.0000000000000D+00  0.0000000000000D+00
   394  3.9300000000000D+00  0.0000000000000D+00  0.0000000000000D+00
   395  3.9400000000000D+00  0.0000000000000D+00  0.0000000000000D+00
   396  3.9500000000000D+00  0.0000000000000D+00  0.0000000000000D+00
   397  3.9600000000000D+00  0.0000000000000D+00  0.0000000000000D+00
   398  3.9700000000000D+00  0.0000000000000D+00  0.0000000000000D+00
   399  3.9800000000000D+00  0.0000000000000D+00  0.0000000000000D+00
   400  3.9900000000000D+00  0.0000000000000D+00  0.0000000000000D+00
   401  4.0000000000000D+00  0.0000000000000D+00  0.0000000000000D+00
   402  4.0100000000000D+00  0.0000000000000D+00  0.0000000000000D+00
   403  4.0200000000000D+00  0.0000000000000D+00  0.0000000000000D+00
   404  4.0300000000000D+00  0.0000000000000D+00  0.0000000000000D+00
   405  4.0400000000000D+00  0.0000000000000D+00  0.0000000000000D+00
   406  4.0500000000000D+00  0.0000000000000D+00  0.0000000000000D+00
   407  4.0600000000000D+00  0.0000000000000D+00  0.0000000000000D+00
   408  4.0700000000000D+00  0.0000000000000D+00  0.0000000000000D+00
   409  4.0800000000000D+00  0.0000000000000D+00  0.0000000000000D+00
   410  4.0900000000000D+00  0.0000000000000D+00  0.0000000000000D+00
   411  4.1000000000000D+00  0.0000000000000D+00  0.0000000000000D+00
   412  4.1100000000000D+00  0.0000000000000D+00  0.0000000000000D+00
   413  4.1200000000000D+00  0.0000000000000D+00  0.0000000000000D+00
   414  4.1300000000000D+00  0.0000000000000D+00  0.0000000000000D+00
   415  4.1400000000000D+00  0.0000000000000D+00  0.0000000000000D+00
   416  4.1500000000000D+00  0.0000000000000D+00  0.0000000000000D+00
   417  4.1600000000000D+00  0.0000000000000D+00  0.0000000000000D+00
   418  4.1700000000000D+00  0.0000000000000D+00  0.0000000000000D+00
   419  4.1800000000000D+00  0.0000000000000D+00  0.0000000000000D+00
   420  4.1900000000000D+00  0.0000000000000D+00  0.0000000000000D+00
   421  4.2000000000000D+00  0.0000000000000D+00  0.0000000000000D+00
   422  4.2100000000000D+00  0.0000000000000D+00  0.0000000000000D+00