H     ONCVPSP  r_core=  1.01  0.71
1.0000      1.0000      161003    zatom,zion,pspd
8      11   1     4   300     0    pspcod,pspxc,lmax,lloc,mmax,r2well
2.99000000  0.00000000  0.00000000    rchrg fchrg qchrg
2     1     0     0     0    nproj
1                 extension_switch
0                        -7.9059420149595D+00 -8.6523006113677D-01
1  0.0000000000000D+00 -4.8696255250391D-08  7.8067548536787D-09
2  1.0000000000000D-02  2.5608705663206D-01  3.0250962994213D-02
3  2.0000000000000D-02  5.0901745220017D-01  6.0958360543424D-02
4  3.0000000000000D-02  7.5568060617523D-01  9.2570116922157D-02
5  4.0000000000000D-02  9.9305735552245D-01  1.2551726707153D-01
6  5.0000000000000D-02  1.2182638172402D+00  1.6020583796955D-01
7  6.0000000000000D-02  1.4285930708683D+00  1.9700911558877D-01
8  7.0000000000000D-02  1.6215539926517D+00  2.3626041663930D-01
9  8.0000000000000D-02  1.7949066217401D+00  2.7824647648780D-01
10  9.0000000000000D-02  1.9466934980435D+00  3.2320155512140D-01
11  1.0000000000000D-01  2.0752664800939D+00  3.7130235193862D-01
12  1.1000000000000D-01  2.1793086282837D+00  4.2266380767513D-01
13  1.2000000000000D-01  2.2578508227854D+00  4.7733585810917D-01
14  1.3000000000000D-01  2.3102828748503D+00  5.3530118955474D-01
15  1.4000000000000D-01  2.3363589834333D+00  5.9647403077484D-01
16  1.5000000000000D-01  2.3361974845806D+00  6.6070000007359D-01
17  1.6000000000000D-01  2.3102749370530D+00  7.2775701020623D-01
18  1.7000000000000D-01  2.2594146825569D+00  7.9735721763471D-01
19  1.8000000000000D-01  2.1847701110639D+00  8.6914998680558D-01
20  1.9000000000000D-01  2.0878029493906D+00  9.4272582478598D-01
21  2.0000000000000D-01  1.9702569729765D+00  1.0176212270003D+00
22  2.1000000000000D-01  1.8341276151955D+00  1.0933243611934D+00
23  2.2000000000000D-01  1.6816280143068D+00  1.1692815043115D+00
24  2.3000000000000D-01  1.5151520941393D+00  1.2449041359374D+00
25  2.4000000000000D-01  1.3372353198853D+00  1.3195765823971D+00
26  2.5000000000000D-01  1.1505138041813D+00  1.3926640978260D+00
27  2.6000000000000D-01  9.5768246043955D-01  1.4635212624454D+00
28  2.7000000000000D-01  7.6145290982991D-01  1.5315005741504D+00
29  2.8000000000000D-01  5.6451184530030D-01  1.5959611072876D+00
30  2.9000000000000D-01  3.6948054067445D-01  1.6562771122445D+00
31  3.0000000000000D-01  1.7887616553510D-01  1.7118464311554D+00
32  3.1000000000000D-01 -4.9244721599682D-03  1.7620986086229D+00
33  3.2000000000000D-01 -1.7971818320363D-01  1.8065025817793D+00
34  3.3000000000000D-01 -3.4350514060572D-01  1.8445738411743D+00
35  3.4000000000000D-01 -4.9451466369686D-01  1.8758809627404D+00
36  3.5000000000000D-01 -6.3122667215522D-01  1.9000514213053D+00
37  3.6000000000000D-01 -7.5238852010771D-01  1.9167766076205D+00
38  3.7000000000000D-01 -8.5702700569007D-01  1.9258159834498D+00
39  3.8000000000000D-01 -9.4445543946117D-01  1.9270003227175D+00
40  3.9000000000000D-01 -1.0142757442308D+00  1.9202340008197D+00
41  4.0000000000000D-01 -1.0663756475260D+00  1.9054963087246D+00
42  4.1000000000000D-01 -1.1009211144727D+00  1.8828417832012D+00
43  4.2000000000000D-01 -1.1183442517240D+00  1.8523995591775D+00
44  4.3000000000000D-01 -1.1193269907315D+00  1.8143717646128D+00
45  4.4000000000000D-01 -1.1047809297268D+00  1.7690309921518D+00
46  4.5000000000000D-01 -1.0758237770198D+00  1.7167168949926D+00
47  4.6000000000000D-01 -1.0337528924933D+00  1.6578319666578D+00
48  4.7000000000000D-01 -9.8001646858614D-01  1.5928365755241D+00
49  4.8000000000000D-01 -9.1618292584528D-01  1.5222433348800D+00
50  4.9000000000000D-01 -8.4390912078605D-01  1.4466108978166D+00
51  5.0000000000000D-01 -7.6490797500843D-01  1.3665372732981D+00
52  5.1000000000000D-01 -6.8091613419299D-01  1.2826527652208D+00
53  5.2000000000000D-01 -5.9366225386271D-01  1.1956126401115D+00
54  5.3000000000000D-01 -5.0483648603516D-01  1.1060896312891D+00
55  5.4000000000000D-01 -4.1606170762993D-01  1.0147663878466D+00
56  5.5000000000000D-01 -3.2886698848117D-01  9.2232797570436D-01
57  5.6000000000000D-01 -2.4466374515997D-01  8.2945453533399D-01
58  5.7000000000000D-01 -1.6472496724709D-01  7.3681419658480D-01
59  5.8000000000000D-01 -9.0167837097006D-02  6.4505634553806D-01
60  5.9000000000000D-01 -2.1939993048491D-02  5.5480533150738D-01
61  6.0000000000000D-01  3.9190388084275D-02  4.6665469444669D-01
62  6.1000000000000D-01  9.2640590241332D-02  3.8116198414759D-01
63  6.2000000000000D-01  1.3801541664759D-01  2.9884423304713D-01
64  6.3000000000000D-01  1.7510536157510D-01  2.2017413420828D-01
65  6.4000000000000D-01  2.0388102245895D-01  1.4557696544912D-01
66  6.5000000000000D-01  2.2448394895713D-01  7.5428289759619D-02
67  6.6000000000000D-01  2.3721418983264D-01  1.0052451240355D-02
68  6.7000000000000D-01  2.4251485594997D-01 -5.0278124910906D-02
69  6.8000000000000D-01  2.4095406763579D-01 -1.0534283025356D-01
70  6.9000000000000D-01  2.3320469493989D-01 -1.5497197888489D-01
71  7.0000000000000D-01  2.2002235490136D-01 -1.9904517677045D-01
72  7.1000000000000D-01  2.0222200501029D-01 -2.3748878896787D-01
73  7.2000000000000D-01  1.8065632488296D-01 -2.7027674142428D-01
74  7.3000000000000D-01  1.5620016264069D-01 -2.9743959082339D-01
75  7.4000000000000D-01  1.2973249652856D-01 -3.1906706619615D-01
76  7.5000000000000D-01  1.0211585457455D-01 -3.3530447136562D-01
77  7.6000000000000D-01  7.4177070519950D-02 -3.4634883164613D-01
78  7.7000000000000D-01  4.6689623989106D-02 -3.5244460427483D-01
79  7.8000000000000D-01  2.0357947640525D-02 -3.5387907805457D-01
80  7.9000000000000D-01 -4.1960040114504D-03 -3.5097752306251D-01
81  8.0000000000000D-01 -2.6443684745018D-02 -3.4409815209467D-01
82  8.1000000000000D-01 -4.5958206668329D-02 -3.3362695408513D-01
83  8.2000000000000D-01 -6.2419794184160D-02 -3.1997245748685D-01
84  8.3000000000000D-01 -7.5618390947211D-02 -3.0356047820327D-01
85  8.4000000000000D-01 -8.5453433724623D-02 -2.8482890313052D-01
86  8.5000000000000D-01 -9.1930870876603D-02 -2.6422255615247D-01
87  8.6000000000000D-01 -9.5157564306867D-02 -2.4218818900709D-01
88  8.7000000000000D-01 -9.5333270905886D-02 -2.1916963492335D-01
89  8.8000000000000D-01 -9.2740451810331D-02 -1.9560315811541D-01
90  8.9000000000000D-01 -8.7732203714367D-02 -1.7191302771685D-01
91  9.0000000000000D-01 -8.0718645484909D-02 -1.4850734016718D-01
92  9.1000000000000D-01 -7.2152124391328D-02 -1.2577410981451D-01
93  9.2000000000000D-01 -6.2511628826670D-02 -1.0407764357669D-01
94  9.3000000000000D-01 -5.2286808163807D-02 -8.3755211835372D-02
95  9.4000000000000D-01 -4.1962004821587D-02 -6.5114024687565D-02
96  9.5000000000000D-01 -3.2000699160342D-02 -4.8428519856203D-02
97  9.6000000000000D-01 -2.2830753731790D-02 -3.3937966346145D-02
98  9.7000000000000D-01 -1.4830821793942D-02 -2.1844386247540D-02
99  9.8000000000000D-01 -8.3207754925362D-03 -1.2315291270950D-02
100  9.9000000000000D-01 -3.5267016198216D-03 -5.4357496133590D-03
101  1.0000000000000D+00 -6.7707844608645D-04 -1.4176046545982D-03
102  1.0100000000000D+00  2.5232694903667D-04 -6.2648480484786D-05
103  1.0200000000000D+00  5.0355983140088D-05  1.9619677717201D-05
104  1.0300000000000D+00 -3.6536904968090D-05 -1.7869387411525D-05
105  1.0400000000000D+00  9.8442974089345D-06  3.6858087776001D-06
106  1.0500000000000D+00 -5.8529355300551D-07  2.0178025346210D-07
107  1.0600000000000D+00  0.0000000000000D+00  0.0000000000000D+00
108  1.0700000000000D+00  0.0000000000000D+00  0.0000000000000D+00
109  1.0800000000000D+00  0.0000000000000D+00  0.0000000000000D+00
110  1.0900000000000D+00  0.0000000000000D+00  0.0000000000000D+00
111  1.1000000000000D+00  0.0000000000000D+00  0.0000000000000D+00
112  1.1100000000000D+00  0.0000000000000D+00  0.0000000000000D+00
113  1.1200000000000D+00  0.0000000000000D+00  0.0000000000000D+00
114  1.1300000000000D+00  0.0000000000000D+00  0.0000000000000D+00
115  1.1400000000000D+00  0.0000000000000D+00  0.0000000000000D+00
116  1.1500000000000D+00  0.0000000000000D+00  0.0000000000000D+00
117  1.1600000000000D+00  0.0000000000000D+00  0.0000000000000D+00
118  1.1700000000000D+00  0.0000000000000D+00  0.0000000000000D+00
119  1.1800000000000D+00  0.0000000000000D+00  0.0000000000000D+00
120  1.1900000000000D+00  0.0000000000000D+00  0.0000000000000D+00
121  1.2000000000000D+00  0.0000000000000D+00  0.0000000000000D+00
122  1.2100000000000D+00  0.0000000000000D+00  0.0000000000000D+00
123  1.2200000000000D+00  0.0000000000000D+00  0.0000000000000D+00
124  1.2300000000000D+00  0.0000000000000D+00  0.0000000000000D+00
125  1.2400000000000D+00  0.0000000000000D+00  0.0000000000000D+00
126  1.2500000000000D+00  0.0000000000000D+00  0.0000000000000D+00
127  1.2600000000000D+00  0.0000000000000D+00  0.0000000000000D+00
128  1.2700000000000D+00  0.0000000000000D+00  0.0000000000000D+00
129  1.2800000000000D+00  0.0000000000000D+00  0.0000000000000D+00
130  1.2900000000000D+00  0.0000000000000D+00  0.0000000000000D+00
131  1.3000000000000D+00  0.0000000000000D+00  0.0000000000000D+00
132  1.3100000000000D+00  0.0000000000000D+00  0.0000000000000D+00
133  1.3200000000000D+00  0.0000000000000D+00  0.0000000000000D+00
134  1.3300000000000D+00  0.0000000000000D+00  0.0000000000000D+00
135  1.3400000000000D+00  0.0000000000000D+00  0.0000000000000D+00
136  1.3500000000000D+00  0.0000000000000D+00  0.0000000000000D+00
137  1.3600000000000D+00  0.0000000000000D+00  0.0000000000000D+00
138  1.3700000000000D+00  0.0000000000000D+00  0.0000000000000D+00
139  1.3800000000000D+00  0.0000000000000D+00  0.0000000000000D+00
140  1.3900000000000D+00  0.0000000000000D+00  0.0000000000000D+00
141  1.4000000000000D+00  0.0000000000000D+00  0.0000000000000D+00
142  1.4100000000000D+00  0.0000000000000D+00  0.0000000000000D+00
143  1.4200000000000D+00  0.0000000000000D+00  0.0000000000000D+00
144  1.4300000000000D+00  0.0000000000000D+00  0.0000000000000D+00
145  1.4400000000000D+00  0.0000000000000D+00  0.0000000000000D+00
146  1.4500000000000D+00  0.0000000000000D+00  0.0000000000000D+00
147  1.4600000000000D+00  0.0000000000000D+00  0.0000000000000D+00
148  1.4700000000000D+00  0.0000000000000D+00  0.0000000000000D+00
149  1.4800000000000D+00  0.0000000000000D+00  0.0000000000000D+00
150  1.4900000000000D+00  0.0000000000000D+00  0.0000000000000D+00
151  1.5000000000000D+00  0.0000000000000D+00  0.0000000000000D+00
152  1.5100000000000D+00  0.0000000000000D+00  0.0000000000000D+00
153  1.5200000000000D+00  0.0000000000000D+00  0.0000000000000D+00
154  1.5300000000000D+00  0.0000000000000D+00  0.0000000000000D+00
155  1.5400000000000D+00  0.0000000000000D+00  0.0000000000000D+00
156  1.5500000000000D+00  0.0000000000000D+00  0.0000000000000D+00
157  1.5600000000000D+00  0.0000000000000D+00  0.0000000000000D+00
158  1.5700000000000D+00  0.0000000000000D+00  0.0000000000000D+00
159  1.5800000000000D+00  0.0000000000000D+00  0.0000000000000D+00
160  1.5900000000000D+00  0.0000000000000D+00  0.0000000000000D+00
161  1.6000000000000D+00  0.0000000000000D+00  0.0000000000000D+00
162  1.6100000000000D+00  0.0000000000000D+00  0.0000000000000D+00
163  1.6200000000000D+00  0.0000000000000D+00  0.0000000000000D+00
164  1.6300000000000D+00  0.0000000000000D+00  0.0000000000000D+00
165  1.6400000000000D+00  0.0000000000000D+00  0.0000000000000D+00
166  1.6500000000000D+00  0.0000000000000D+00  0.0000000000000D+00
167  1.6600000000000D+00  0.0000000000000D+00  0.0000000000000D+00
168  1.6700000000000D+00  0.0000000000000D+00  0.0000000000000D+00
169  1.6800000000000D+00  0.0000000000000D+00  0.0000000000000D+00
170  1.6900000000000D+00  0.0000000000000D+00  0.0000000000000D+00
171  1.7000000000000D+00  0.0000000000000D+00  0.0000000000000D+00
172  1.7100000000000D+00  0.0000000000000D+00  0.0000000000000D+00
173  1.7200000000000D+00  0.0000000000000D+00  0.0000000000000D+00
174  1.7300000000000D+00  0.0000000000000D+00  0.0000000000000D+00
175  1.7400000000000D+00  0.0000000000000D+00  0.0000000000000D+00
176  1.7500000000000D+00  0.0000000000000D+00  0.0000000000000D+00
177  1.7600000000000D+00  0.0000000000000D+00  0.0000000000000D+00
178  1.7700000000000D+00  0.0000000000000D+00  0.0000000000000D+00
179  1.7800000000000D+00  0.0000000000000D+00  0.0000000000000D+00
180  1.7900000000000D+00  0.0000000000000D+00  0.0000000000000D+00
181  1.8000000000000D+00  0.0000000000000D+00  0.0000000000000D+00
182  1.8100000000000D+00  0.0000000000000D+00  0.0000000000000D+00
183  1.8200000000000D+00  0.0000000000000D+00  0.0000000000000D+00
184  1.8300000000000D+00  0.0000000000000D+00  0.0000000000000D+00
185  1.8400000000000D+00  0.0000000000000D+00  0.0000000000000D+00
186  1.8500000000000D+00  0.0000000000000D+00  0.0000000000000D+00
187  1.8600000000000D+00  0.0000000000000D+00  0.0000000000000D+00
188  1.8700000000000D+00  0.0000000000000D+00  0.0000000000000D+00
189  1.8800000000000D+00  0.0000000000000D+00  0.0000000000000D+00
190  1.8900000000000D+00  0.0000000000000D+00  0.0000000000000D+00
191  1.9000000000000D+00  0.0000000000000D+00  0.0000000000000D+00
192  1.9100000000000D+00  0.0000000000000D+00  0.0000000000000D+00
193  1.9200000000000D+00  0.0000000000000D+00  0.0000000000000D+00
194  1.9300000000000D+00  0.0000000000000D+00  0.0000000000000D+00
195  1.9400000000000D+00  0.0000000000000D+00  0.0000000000000D+00
196  1.9500000000000D+00  0.0000000000000D+00  0.0000000000000D+00
197  1.9600000000000D+00  0.0000000000000D+00  0.0000000000000D+00
198  1.9700000000000D+00  0.0000000000000D+00  0.0000000000000D+00
199  1.9800000000000D+00  0.0000000000000D+00  0.0000000000000D+00
200  1.9900000000000D+00  0.0000000000000D+00  0.0000000000000D+00
201  2.0000000000000D+00  0.0000000000000D+00  0.0000000000000D+00
202  2.0100000000000D+00  0.0000000000000D+00  0.0000000000000D+00
203  2.0200000000000D+00  0.0000000000000D+00  0.0000000000000D+00
204  2.0300000000000D+00  0.0000000000000D+00  0.0000000000000D+00
205  2.0400000000000D+00  0.0000000000000D+00  0.0000000000000D+00
206  2.0500000000000D+00  0.0000000000000D+00  0.0000000000000D+00
207  2.0600000000000D+00  0.0000000000000D+00  0.0000000000000D+00
208  2.0700000000000D+00  0.0000000000000D+00  0.0000000000000D+00
209  2.0800000000000D+00  0.0000000000000D+00  0.0000000000000D+00
210  2.0900000000000D+00  0.0000000000000D+00  0.0000000000000D+00
211  2.1000000000000D+00  0.0000000000000D+00  0.0000000000000D+00
212  2.1100000000000D+00  0.0000000000000D+00  0.0000000000000D+00
213  2.1200000000000D+00  0.0000000000000D+00  0.0000000000000D+00
214  2.1300000000000D+00  0.0000000000000D+00  0.0000000000000D+00
215  2.1400000000000D+00  0.0000000000000D+00  0.0000000000000D+00
216  2.1500000000000D+00  0.0000000000000D+00  0.0000000000000D+00
217  2.1600000000000D+00  0.0000000000000D+00  0.0000000000000D+00
218  2.1700000000000D+00  0.0000000000000D+00  0.0000000000000D+00
219  2.1800000000000D+00  0.0000000000000D+00  0.0000000000000D+00
220  2.1900000000000D+00  0.0000000000000D+00  0.0000000000000D+00
221  2.2000000000000D+00  0.0000000000000D+00  0.0000000000000D+00
222  2.2100000000000D+00  0.0000000000000D+00  0.0000000000000D+00
223  2.2200000000000D+00  0.0000000000000D+00  0.0000000000000D+00
224  2.2300000000000D+00  0.0000000000000D+00  0.0000000000000D+00
225  2.2400000000000D+00  0.0000000000000D+00  0.0000000000000D+00
226  2.2500000000000D+00  0.0000000000000D+00  0.0000000000000D+00
227  2.2600000000000D+00  0.0000000000000D+00  0.0000000000000D+00
228  2.2700000000000D+00  0.0000000000000D+00  0.0000000000000D+00
229  2.2800000000000D+00  0.0000000000000D+00  0.0000000000000D+00
230  2.2900000000000D+00  0.0000000000000D+00  0.0000000000000D+00
231  2.3000000000000D+00  0.0000000000000D+00  0.0000000000000D+00
232  2.3100000000000D+00  0.0000000000000D+00  0.0000000000000D+00
233  2.3200000000000D+00  0.0000000000000D+00  0.0000000000000D+00
234  2.3300000000000D+00  0.0000000000000D+00  0.0000000000000D+00
235  2.3400000000000D+00  0.0000000000000D+00  0.0000000000000D+00
236  2.3500000000000D+00  0.0000000000000D+00  0.0000000000000D+00
237  2.3600000000000D+00  0.0000000000000D+00  0.0000000000000D+00
238  2.3700000000000D+00  0.0000000000000D+00  0.0000000000000D+00
239  2.3800000000000D+00  0.0000000000000D+00  0.0000000000000D+00
240  2.3900000000000D+00  0.0000000000000D+00  0.0000000000000D+00
241  2.4000000000000D+00  0.0000000000000D+00  0.0000000000000D+00
242  2.4100000000000D+00  0.0000000000000D+00  0.0000000000000D+00
243  2.4200000000000D+00  0.0000000000000D+00  0.0000000000000D+00
244  2.4300000000000D+00  0.0000000000000D+00  0.0000000000000D+00
245  2.4400000000000D+00  0.0000000000000D+00  0.0000000000000D+00
246  2.4500000000000D+00  0.0000000000000D+00  0.0000000000000D+00
247  2.4600000000000D+00  0.0000000000000D+00  0.0000000000000D+00
248  2.4700000000000D+00  0.0000000000000D+00  0.0000000000000D+00
249  2.4800000000000D+00  0.0000000000000D+00  0.0000000000000D+00
250  2.4900000000000D+00  0.0000000000000D+00  0.0000000000000D+00
251  2.5000000000000D+00  0.0000000000000D+00  0.0000000000000D+00
252  2.5100000000000D+00  0.0000000000000D+00  0.0000000000000D+00
253  2.5200000000000D+00  0.0000000000000D+00  0.0000000000000D+00
254  2.5300000000000D+00  0.0000000000000D+00  0.0000000000000D+00
255  2.5400000000000D+00  0.0000000000000D+00  0.0000000000000D+00
256  2.5500000000000D+00  0.0000000000000D+00  0.0000000000000D+00
257  2.5600000000000D+00  0.0000000000000D+00  0.0000000000000D+00
258  2.5700000000000D+00  0.0000000000000D+00  0.0000000000000D+00
259  2.5800000000000D+00  0.0000000000000D+00  0.0000000000000D+00
260  2.5900000000000D+00  0.0000000000000D+00  0.0000000000000D+00
261  2.6000000000000D+00  0.0000000000000D+00  0.0000000000000D+00
262  2.6100000000000D+00  0.0000000000000D+00  0.0000000000000D+00
263  2.6200000000000D+00  0.0000000000000D+00  0.0000000000000D+00
264  2.6300000000000D+00  0.0000000000000D+00  0.0000000000000D+00
265  2.6400000000000D+00  0.0000000000000D+00  0.0000000000000D+00
266  2.6500000000000D+00  0.0000000000000D+00  0.0000000000000D+00
267  2.6600000000000D+00  0.0000000000000D+00  0.0000000000000D+00
268  2.6700000000000D+00  0.0000000000000D+00  0.0000000000000D+00
269  2.6800000000000D+00  0.0000000000000D+00  0.0000000000000D+00
270  2.6900000000000D+00  0.0000000000000D+00  0.0000000000000D+00
271  2.7000000000000D+00  0.0000000000000D+00  0.0000000000000D+00
272  2.7100000000000D+00  0.0000000000000D+00  0.0000000000000D+00
273  2.7200000000000D+00  0.0000000000000D+00  0.0000000000000D+00
274  2.7300000000000D+00  0.0000000000000D+00  0.0000000000000D+00
275  2.7400000000000D+00  0.0000000000000D+00  0.0000000000000D+00
276  2.7500000000000D+00  0.0000000000000D+00  0.0000000000000D+00
277  2.7600000000000D+00  0.0000000000000D+00  0.0000000000000D+00
278  2.7700000000000D+00  0.0000000000000D+00  0.0000000000000D+00
279  2.7800000000000D+00  0.0000000000000D+00  0.0000000000000D+00
280  2.7900000000000D+00  0.0000000000000D+00  0.0000000000000D+00
281  2.8000000000000D+00  0.0000000000000D+00  0.0000000000000D+00
282  2.8100000000000D+00  0.0000000000000D+00  0.0000000000000D+00
283  2.8200000000000D+00  0.0000000000000D+00  0.0000000000000D+00
284  2.8300000000000D+00  0.0000000000000D+00  0.0000000000000D+00
285  2.8400000000000D+00  0.0000000000000D+00  0.0000000000000D+00
286  2.8500000000000D+00  0.0000000000000D+00  0.0000000000000D+00
287  2.8600000000000D+00  0.0000000000000D+00  0.0000000000000D+00
288  2.8700000000000D+00  0.0000000000000D+00  0.0000000000000D+00
289  2.8800000000000D+00  0.0000000000000D+00  0.0000000000000D+00
290  2.8900000000000D+00  0.0000000000000D+00  0.0000000000000D+00
291  2.9000000000000D+00  0.0000000000000D+00  0.0000000000000D+00
292  2.9100000000000D+00  0.0000000000000D+00  0.0000000000000D+00
293  2.9200000000000D+00  0.0000000000000D+00  0.0000000000000D+00
294  2.9300000000000D+00  0.0000000000000D+00  0.0000000000000D+00
295  2.9400000000000D+00  0.0000000000000D+00  0.0000000000000D+00
296  2.9500000000000D+00  0.0000000000000D+00  0.0000000000000D+00
297  2.9600000000000D+00  0.0000000000000D+00  0.0000000000000D+00
298  2.9700000000000D+00  0.0000000000000D+00  0.0000000000000D+00
299  2.9800000000000D+00  0.0000000000000D+00  0.0000000000000D+00
300  2.9900000000000D+00  0.0000000000000D+00  0.0000000000000D+00
1                        -6.8530453025529D+00
1  0.0000000000000D+00 -2.7904952299984D-06
2  1.0000000000000D-02 -8.3470403393894D-03
3  2.0000000000000D-02 -3.2611309336777D-02
4  3.0000000000000D-02 -7.0505920064425D-02
5  4.0000000000000D-02 -1.1836274472804D-01
6  5.0000000000000D-02 -1.7133980226378D-01
7  6.0000000000000D-02 -2.2369671109970D-01
8  7.0000000000000D-02 -2.6912419919320D-01
9  8.0000000000000D-02 -3.0111087296090D-01
10  9.0000000000000D-02 -3.1332848318127D-01
11  1.0000000000000D-01 -3.0001588712024D-01
12  1.1000000000000D-01 -2.5634184475652D-01
13  1.2000000000000D-01 -1.7872770823309D-01
14  1.3000000000000D-01 -6.5112924810540D-02
15  1.4000000000000D-01  8.4851013934770D-02
16  1.5000000000000D-01  2.6968911033526D-01
17  1.6000000000000D-01  4.8608083077927D-01
18  1.7000000000000D-01  7.2893010043985D-01
19  1.8000000000000D-01  9.9152541168143D-01
20  1.9000000000000D-01  1.2657836987500D+00
21  2.0000000000000D-01  1.5425674779780D+00
22  2.1000000000000D-01  1.8120610852958D+00
23  2.2000000000000D-01  2.0641888410899D+00
24  2.3000000000000D-01  2.2890557843166D+00
25  2.4000000000000D-01  2.4773903521720D+00
26  2.5000000000000D-01  2.6209681030784D+00
27  2.6000000000000D-01  2.7129963062226D+00
28  2.7000000000000D-01  2.7484409188868D+00
29  2.8000000000000D-01  2.7242800647717D+00
30  2.9000000000000D-01  2.6396714905930D+00
31  3.0000000000000D-01  2.4960254550249D+00
32  3.1000000000000D-01  2.2969789043409D+00
33  3.2000000000000D-01  2.0482714028161D+00
34  3.3000000000000D-01  1.7575278924346D+00
35  3.4000000000000D-01  1.4339577348397D+00
36  3.5000000000000D-01  1.0879834288543D+00
37  3.6000000000000D-01  7.3081570966169D-01
38  3.7000000000000D-01  3.7399426170879D-01
39  3.8000000000000D-01  2.8914894675516D-02
40  3.9000000000000D-01 -2.9363533763919D-01
41  4.0000000000000D-01 -5.8391398270496D-01
42  4.1000000000000D-01 -8.3361029241968D-01
43  4.2000000000000D-01 -1.0361661969976D+00
44  4.3000000000000D-01 -1.1870169036593D+00
45  4.4000000000000D-01 -1.2837406863038D+00
46  4.5000000000000D-01 -1.3261117321643D+00
47  4.6000000000000D-01 -1.3160544922881D+00
48  4.7000000000000D-01 -1.2575026243155D+00
49  4.8000000000000D-01 -1.1561700954664D+00
50  4.9000000000000D-01 -1.0192461153081D+00
51  5.0000000000000D-01 -8.5502909538428D-01
52  5.1000000000000D-01 -6.7251761729426D-01
53  5.2000000000000D-01 -4.8097829836680D-01
54  5.3000000000000D-01 -2.8951138555301D-01
55  5.4000000000000D-01 -1.0663484048932D-01
56  5.5000000000000D-01  6.0093396918602D-02
57  5.6000000000000D-01  2.0439729664666D-01
58  5.7000000000000D-01  3.2153398954258D-01
59  5.8000000000000D-01  4.0846316111729D-01
60  5.9000000000000D-01  4.6392749383575D-01
61  6.0000000000000D-01  4.8844148770464D-01
62  6.1000000000000D-01  4.8419056283550D-01
63  6.2000000000000D-01  4.5484676617170D-01
64  6.3000000000000D-01  4.0531153821306D-01
65  6.4000000000000D-01  3.4139956371316D-01
66  6.5000000000000D-01  2.6948060990640D-01
67  6.6000000000000D-01  1.9609828834913D-01
68  6.7000000000000D-01  1.2758575298729D-01
69  6.8000000000000D-01  6.9698437149402D-02
70  6.9000000000000D-01  2.7255882037002D-02
71  7.0000000000000D-01  4.2522192687333D-03
72  7.1000000000000D-01 -2.6092857112589D-04
73  7.2000000000000D-01  8.0537357917571D-05
74  7.3000000000000D-01 -8.5965955808110D-06
75  7.4000000000000D-01 -7.4287215524145D-08
76  7.5000000000000D-01  0.0000000000000D+00
77  7.6000000000000D-01  0.0000000000000D+00
78  7.7000000000000D-01  0.0000000000000D+00
79  7.8000000000000D-01  0.0000000000000D+00
80  7.9000000000000D-01  0.0000000000000D+00
81  8.0000000000000D-01  0.0000000000000D+00
82  8.1000000000000D-01  0.0000000000000D+00
83  8.2000000000000D-01  0.0000000000000D+00
84  8.3000000000000D-01  0.0000000000000D+00
85  8.4000000000000D-01  0.0000000000000D+00
86  8.5000000000000D-01  0.0000000000000D+00
87  8.6000000000000D-01  0.0000000000000D+00
88  8.7000000000000D-01  0.0000000000000D+00
89  8.8000000000000D-01  0.0000000000000D+00
90  8.9000000000000D-01  0.0000000000000D+00
91  9.0000000000000D-01  0.0000000000000D+00
92  9.1000000000000D-01  0.0000000000000D+00
93  9.2000000000000D-01  0.0000000000000D+00
94  9.3000000000000D-01  0.0000000000000D+00
95  9.4000000000000D-01  0.0000000000000D+00
96  9.5000000000000D-01  0.0000000000000D+00
97  9.6000000000000D-01  0.0000000000000D+00
98  9.7000000000000D-01  0.0000000000000D+00
99  9.8000000000000D-01  0.0000000000000D+00
100  9.9000000000000D-01  0.0000000000000D+00
101  1.0000000000000D+00  0.0000000000000D+00
102  1.0100000000000D+00  0.0000000000000D+00
103  1.0200000000000D+00  0.0000000000000D+00
104  1.0300000000000D+00  0.0000000000000D+00
105  1.0400000000000D+00  0.0000000000000D+00
106  1.0500000000000D+00  0.0000000000000D+00
107  1.0600000000000D+00  0.0000000000000D+00
108  1.0700000000000D+00  0.0000000000000D+00
109  1.0800000000000D+00  0.0000000000000D+00
110  1.0900000000000D+00  0.0000000000000D+00
111  1.1000000000000D+00  0.0000000000000D+00
112  1.1100000000000D+00  0.0000000000000D+00
113  1.1200000000000D+00  0.0000000000000D+00
114  1.1300000000000D+00  0.0000000000000D+00
115  1.1400000000000D+00  0.0000000000000D+00
116  1.1500000000000D+00  0.0000000000000D+00
117  1.1600000000000D+00  0.0000000000000D+00
118  1.1700000000000D+00  0.0000000000000D+00
119  1.1800000000000D+00  0.0000000000000D+00
120  1.1900000000000D+00  0.0000000000000D+00
121  1.2000000000000D+00  0.0000000000000D+00
122  1.2100000000000D+00  0.0000000000000D+00
123  1.2200000000000D+00  0.0000000000000D+00
124  1.2300000000000D+00  0.0000000000000D+00
125  1.2400000000000D+00  0.0000000000000D+00
126  1.2500000000000D+00  0.0000000000000D+00
127  1.2600000000000D+00  0.0000000000000D+00
128  1.2700000000000D+00  0.0000000000000D+00
129  1.2800000000000D+00  0.0000000000000D+00
130  1.2900000000000D+00  0.0000000000000D+00
131  1.3000000000000D+00  0.0000000000000D+00
132  1.3100000000000D+00  0.0000000000000D+00
133  1.3200000000000D+00  0.0000000000000D+00
134  1.3300000000000D+00  0.0000000000000D+00
135  1.3400000000000D+00  0.0000000000000D+00
136  1.3500000000000D+00  0.0000000000000D+00
137  1.3600000000000D+00  0.0000000000000D+00
138  1.3700000000000D+00  0.0000000000000D+00
139  1.3800000000000D+00  0.0000000000000D+00
140  1.3900000000000D+00  0.0000000000000D+00
141  1.4000000000000D+00  0.0000000000000D+00
142  1.4100000000000D+00  0.0000000000000D+00
143  1.4200000000000D+00  0.0000000000000D+00
144  1.4300000000000D+00  0.0000000000000D+00
145  1.4400000000000D+00  0.0000000000000D+00
146  1.4500000000000D+00  0.0000000000000D+00
147  1.4600000000000D+00  0.0000000000000D+00
148  1.4700000000000D+00  0.0000000000000D+00
149  1.4800000000000D+00  0.0000000000000D+00
150  1.4900000000000D+00  0.0000000000000D+00
151  1.5000000000000D+00  0.0000000000000D+00
152  1.5100000000000D+00  0.0000000000000D+00
153  1.5200000000000D+00  0.0000000000000D+00
154  1.5300000000000D+00  0.0000000000000D+00
155  1.5400000000000D+00  0.0000000000000D+00
156  1.5500000000000D+00  0.0000000000000D+00
157  1.5600000000000D+00  0.0000000000000D+00
158  1.5700000000000D+00  0.0000000000000D+00
159  1.5800000000000D+00  0.0000000000000D+00
160  1.5900000000000D+00  0.0000000000000D+00
161  1.6000000000000D+00  0.0000000000000D+00
162  1.6100000000000D+00  0.0000000000000D+00
163  1.6200000000000D+00  0.0000000000000D+00
164  1.6300000000000D+00  0.0000000000000D+00
165  1.6400000000000D+00  0.0000000000000D+00
166  1.6500000000000D+00  0.0000000000000D+00
167  1.6600000000000D+00  0.0000000000000D+00
168  1.6700000000000D+00  0.0000000000000D+00
169  1.6800000000000D+00  0.0000000000000D+00
170  1.6900000000000D+00  0.0000000000000D+00
171  1.7000000000000D+00  0.0000000000000D+00
172  1.7100000000000D+00  0.0000000000000D+00
173  1.7200000000000D+00  0.0000000000000D+00
174  1.7300000000000D+00  0.0000000000000D+00
175  1.7400000000000D+00  0.0000000000000D+00
176  1.7500000000000D+00  0.0000000000000D+00
177  1.7600000000000D+00  0.0000000000000D+00
178  1.7700000000000D+00  0.0000000000000D+00
179  1.7800000000000D+00  0.0000000000000D+00
180  1.7900000000000D+00  0.0000000000000D+00
181  1.8000000000000D+00  0.0000000000000D+00
182  1.8100000000000D+00  0.0000000000000D+00
183  1.8200000000000D+00  0.0000000000000D+00
184  1.8300000000000D+00  0.0000000000000D+00
185  1.8400000000000D+00  0.0000000000000D+00
186  1.8500000000000D+00  0.0000000000000D+00
187  1.8600000000000D+00  0.0000000000000D+00
188  1.8700000000000D+00  0.0000000000000D+00
189  1.8800000000000D+00  0.0000000000000D+00
190  1.8900000000000D+00  0.0000000000000D+00
191  1.9000000000000D+00  0.0000000000000D+00
192  1.9100000000000D+00  0.0000000000000D+00
193  1.9200000000000D+00  0.0000000000000D+00
194  1.9300000000000D+00  0.0000000000000D+00
195  1.9400000000000D+00  0.0000000000000D+00
196  1.9500000000000D+00  0.0000000000000D+00
197  1.9600000000000D+00  0.0000000000000D+00
198  1.9700000000000D+00  0.0000000000000D+00
199  1.9800000000000D+00  0.0000000000000D+00
200  1.9900000000000D+00  0.0000000000000D+00
201  2.0000000000000D+00  0.0000000000000D+00
202  2.0100000000000D+00  0.0000000000000D+00
203  2.0200000000000D+00  0.0000000000000D+00
204  2.0300000000000D+00  0.0000000000000D+00
205  2.0400000000000D+00  0.0000000000000D+00
206  2.0500000000000D+00  0.0000000000000D+00
207  2.0600000000000D+00  0.0000000000000D+00
208  2.0700000000000D+00  0.0000000000000D+00
209  2.0800000000000D+00  0.0000000000000D+00
210  2.0900000000000D+00  0.0000000000000D+00
211  2.1000000000000D+00  0.0000000000000D+00