He    ONCVPSP-3.2.3.1  r_core=   1.26476   1.13601
2.0000      2.0000      170510    zatom,zion,pspd
8      11   1     4   600     0    pspcod,pspxc,lmax,lloc,mmax,r2well
5.99000000  0.00000000  0.00000000    rchrg fchrg qchrg
2     1     0     0     0    nproj
1     1           extension_switch
0                        -3.5155909164765D+00 -8.0226217090410D-01
1  0.0000000000000D+00 -2.3202472165806D-09  7.0698973897443D-09
2  1.0000000000000D-02  1.0938915075775D-01 -5.2008631245201D-02
3  2.0000000000000D-02  2.1833093077599D-01 -1.0343630791261D-01
4  3.0000000000000D-02  3.2638110312639D-01 -1.5370877687720D-01
5  4.0000000000000D-02  4.3310166127367D-01 -2.0226508451418D-01
6  5.0000000000000D-02  5.3806385180645D-01 -2.4856396978927D-01
7  6.0000000000000D-02  6.4085108789902D-01 -2.9208995451193D-01
8  7.0000000000000D-02  7.4106171986465D-01 -3.3235903829356D-01
9  8.0000000000000D-02  8.3831163148068D-01 -3.6892391282238D-01
10  9.0000000000000D-02  9.3223663358615D-01 -4.0137861865230D-01
11  1.0000000000000D-01  1.0224946297202D+00 -4.2936257764262D-01
12  1.1000000000000D-01  1.1087675322263D+00 -4.5256394529350D-01
13  1.2000000000000D-01  1.1907629112272D+00 -4.7072223928971D-01
14  1.3000000000000D-01  1.2682153631013D+00 -4.8363021336726D-01
15  1.4000000000000D-01  1.3408875894979D+00 -4.9113495891236D-01
16  1.5000000000000D-01  1.4085711824194D+00 -4.9313823024361D-01
17  1.6000000000000D-01  1.4710871154098D+00 -4.8959600306056D-01
18  1.7000000000000D-01  1.5282859453262D+00 -4.8051728881317D-01
19  1.8000000000000D-01  1.5800477334646D+00 -4.6596224050956D-01
20  1.9000000000000D-01  1.6262816988726D+00 -4.4603959749519D-01
21  2.0000000000000D-01  1.6669256204594D+00 -4.2090352778239D-01
22  2.1000000000000D-01  1.7019450079148D+00 -3.9074993637944D-01
23  2.2000000000000D-01  1.7313320644408D+00 -3.5581231658229D-01
24  2.3000000000000D-01  1.7551044668105D+00 -3.1635722819010D-01
25  2.4000000000000D-01  1.7733039902717D+00 -2.7267949196519D-01
26  2.5000000000000D-01  1.7859950072661D+00 -2.2509719327838D-01
27  2.6000000000000D-01  1.7932628898244D+00 -1.7394658970226D-01
28  2.7000000000000D-01  1.7952123458072D+00 -1.1957701730909D-01
29  2.8000000000000D-01  1.7919657188973D+00 -6.2345888602380D-02
30  2.9000000000000D-01  1.7836612814184D+00 -2.6138714059541D-03
31  3.0000000000000D-01  1.7704515476822D+00  5.9259667274483D-02
32  3.1000000000000D-01  1.7525016336859D+00  1.2292087530373D-01
33  3.2000000000000D-01  1.7299876866358D+00  1.8802521862578D-01
34  3.3000000000000D-01  1.7030954050071D+00  2.5424081451232D-01
35  3.4000000000000D-01  1.6720186667383D+00  3.2125124646911D-01
36  3.5000000000000D-01  1.6369582797486D+00  3.8875782403125D-01
37  3.6000000000000D-01  1.5981208653477D+00  4.5648126293857D-01
38  3.7000000000000D-01  1.5557178813437D+00  5.2416277384643D-01
39  3.8000000000000D-01  1.5099647878269D+00  5.9156456054129D-01
40  3.9000000000000D-01  1.4610803548034D+00  6.5846974134104D-01
41  4.0000000000000D-01  1.4092861071354D+00  7.2468171971104D-01
42  4.1000000000000D-01  1.3548058987103D+00  7.9002304187327D-01
43  4.2000000000000D-01  1.2978656044663D+00  8.5433379009048D-01
44  4.3000000000000D-01  1.2386929159248D+00  9.1746957015017D-01
45  4.4000000000000D-01  1.1775172232849D+00  9.7929916015669D-01
46  4.5000000000000D-01  1.1145695649607D+00  1.0397018948854D+00
47  4.6000000000000D-01  1.0500826237605D+00  1.0985648655172D+00
48  4.7000000000000D-01  9.8429074772602D-01  1.1557800184353D+00
49  4.8000000000000D-01  9.1742997301618D-01  1.2112412388462D+00
50  4.9000000000000D-01  8.4973802614170D-01  1.2648415052353D+00
51  5.0000000000000D-01  7.8145428333090D-01  1.3164701990729D+00
52  5.1000000000000D-01  7.1281966583903D-01  1.3660106507706D+00
53  5.2000000000000D-01  6.4407645157305D-01  1.4133379977118D+00
54  5.3000000000000D-01  5.7546798546557D-01  1.4583174233416D+00
55  5.4000000000000D-01  5.0723827355434D-01  1.5008028379297D+00
56  5.5000000000000D-01  4.3963144866001D-01  1.5406360518624D+00
57  5.6000000000000D-01  3.7289109883529D-01  1.5776464814000D+00
58  5.7000000000000D-01  3.0725945333497D-01  1.6116514149122D+00
59  5.8000000000000D-01  2.4297642463152D-01  1.6424568549786D+00
60  5.9000000000000D-01  1.8027850892167D-01  1.6698589385926D+00
61  6.0000000000000D-01  1.1939755152893D-01  1.6936459243759D+00
62  6.1000000000000D-01  6.0559387550061D-02  1.7136007223724D+00
63  6.2000000000000D-01  3.9823718973029D-03  1.7295039290433D+00
64  6.3000000000000D-01 -5.0124183477123D-02  1.7411373176232D+00
65  6.4000000000000D-01 -1.0156164406420D-01  1.7482877224844D+00
66  6.5000000000000D-01 -1.5014373488426D-01  1.7507512456457D+00
67  6.6000000000000D-01 -1.9569824351039D-01  1.7483377043941D+00
68  6.7000000000000D-01 -2.3806871529150D-01  1.7408752313559D+00
69  6.8000000000000D-01 -2.7711611049132D-01  1.7282149323599D+00
70  6.9000000000000D-01 -3.1272039210233D-01  1.7102355033081D+00
71  7.0000000000000D-01 -3.4478201274844D-01  1.6868477050752D+00
72  7.1000000000000D-01 -3.7322326936946D-01  1.6579985952577D+00
73  7.2000000000000D-01 -3.9798949531082D-01  1.6236754174604D+00
74  7.3000000000000D-01 -4.1905006100120D-01  1.5839090527001D+00
75  7.4000000000000D-01 -4.3639915658183D-01  1.5387769433979D+00
76  7.5000000000000D-01 -4.5005633262645D-01  1.4884054082435D+00
77  7.6000000000000D-01 -4.6006677840637D-01  1.4329712757887D+00
78  7.7000000000000D-01 -4.6650132097551D-01  1.3727027758550D+00
79  7.8000000000000D-01 -4.6945613260960D-01  1.3078796405213D+00
80  7.9000000000000D-01 -4.6905213874299D-01  1.2388323803169D+00
81  8.0000000000000D-01 -4.6543412344927D-01  1.1659407161109D+00
82  8.1000000000000D-01 -4.5876953460782D-01  1.0896311627488D+00
83  8.2000000000000D-01 -4.4924699609946D-01  1.0103737764630D+00
84  8.3000000000000D-01 -4.3707453958587D-01  9.2867809419227D-01
85  8.4000000000000D-01 -4.2247757355264D-01  8.4508830886364D-01
86  8.5000000000000D-01 -4.0569661223832D-01  7.6017774014059D-01
87  8.6000000000000D-01 -3.8698479173773D-01  6.7454267480221D-01
88  8.7000000000000D-01 -3.6660520486624D-01  5.8879566452505D-01
89  8.8000000000000D-01 -3.4482809021824D-01  5.0355838110867D-01
90  8.9000000000000D-01 -3.2192791416933D-01  4.1945413987843D-01
91  9.0000000000000D-01 -2.9818038728996D-01  3.3710021089129D-01
92  9.1000000000000D-01 -2.7385945869800D-01  2.5710004447277D-01
93  9.2000000000000D-01 -2.4923433323285D-01  1.8003554237273D-01
94  9.3000000000000D-01 -2.2456655694833D-01  1.0645950832536D-01
95  9.4000000000000D-01 -2.0010721627350D-01  3.6888411960947D-02
96  9.5000000000000D-01 -1.7609429527104D-01 -2.8204402192331D-02
97  9.6000000000000D-01 -1.5275023374892D-01 -8.8394933417037D-02
98  9.7000000000000D-01 -1.3027972649054D-01 -1.4331405107664D-01
99  9.8000000000000D-01 -1.0886780132409D-01 -1.9265221508369D-01
100  9.9000000000000D-01 -8.8678209249632D-02 -2.3616329142889D-01
101  1.0000000000000D+00 -6.9852131848018D-02 -2.7366746997864D-01
102  1.0100000000000D+00 -5.2507365004598D-02 -3.0505266739034D-01
103  1.0200000000000D+00 -3.6737421797270D-02 -3.3027670529410D-01
104  1.0300000000000D+00 -2.2610145695786D-02 -3.4937184170754D-01
105  1.0400000000000D+00 -1.0166654244926D-02 -3.6244810967596D-01
106  1.0500000000000D+00  5.7839796246244D-04 -3.6969159519310D-01
107  1.0600000000000D+00  9.6361209365253D-03 -3.7136137754528D-01
108  1.0700000000000D+00  1.7042335573950D-02 -3.6778546345558D-01
109  1.0800000000000D+00  2.2856156661378D-02 -3.5935565428830D-01
110  1.0900000000000D+00  2.7158240764010D-02 -3.4652143824344D-01
111  1.1000000000000D+00  3.0048729504887D-02 -3.2978300142851D-01
112  1.1100000000000D+00  3.1644922447666D-02 -3.0968346072247D-01
113  1.1200000000000D+00  3.2078717962732D-02 -2.8680043468582D-01
114  1.1300000000000D+00  3.1493864696408D-02 -2.6173708175838D-01
115  1.1400000000000D+00  3.0043069463873D-02 -2.3511274514803D-01
116  1.1500000000000D+00  2.7885008334089D-02 -2.0755334548447D-01
117  1.1600000000000D+00  2.5181292219225D-02 -1.7968167833397D-01
118  1.1700000000000D+00  2.2093438168305D-02 -1.5210777295516D-01
119  1.1800000000000D+00  1.8779892005087D-02 -1.2541944803306D-01
120  1.1900000000000D+00  1.5393156861233D-02 -1.0017323367223D-01
121  1.2000000000000D+00  1.2077073869465D-02 -7.6885799743619D-02
122  1.2100000000000D+00  8.9642984227913D-03 -5.6026021747866D-02
123  1.2200000000000D+00  6.1740163038562D-03 -3.8007820142013D-02
124  1.2300000000000D+00  3.8113750061659D-03 -2.3192511275659D-02
125  1.2400000000000D+00  1.9508308760451D-03 -1.1793200308055D-02
126  1.2500000000000D+00  6.8906464139472D-04 -4.1994788908358D-03
127  1.2600000000000D+00  7.9661381369861D-05 -5.8650155343916D-04
128  1.2700000000000D+00 -5.6907203565010D-05  2.6089324386168D-04
129  1.2800000000000D+00  2.8650766657010D-07 -1.4342854849851D-06
130  1.2900000000000D+00  1.1995006853795D-05 -6.1541869903438D-05
131  1.3000000000000D+00 -2.4164792825897D-06  1.2034409771920D-05
132  1.3100000000000D+00 -4.3420261453089D-07  2.1857218879380D-06
133  1.3200000000000D+00  7.6805330642028D-08 -1.6307232158337D-07
134  1.3300000000000D+00  0.0000000000000D+00  0.0000000000000D+00
135  1.3400000000000D+00  0.0000000000000D+00  0.0000000000000D+00
136  1.3500000000000D+00  0.0000000000000D+00  0.0000000000000D+00
137  1.3600000000000D+00  0.0000000000000D+00  0.0000000000000D+00
138  1.3700000000000D+00  0.0000000000000D+00  0.0000000000000D+00
139  1.3800000000000D+00  0.0000000000000D+00  0.0000000000000D+00
140  1.3900000000000D+00  0.0000000000000D+00  0.0000000000000D+00
141  1.4000000000000D+00  0.0000000000000D+00  0.0000000000000D+00
142  1.4100000000000D+00  0.0000000000000D+00  0.0000000000000D+00
143  1.4200000000000D+00  0.0000000000000D+00  0.0000000000000D+00
144  1.4300000000000D+00  0.0000000000000D+00  0.0000000000000D+00
145  1.4400000000000D+00  0.0000000000000D+00  0.0000000000000D+00
146  1.4500000000000D+00  0.0000000000000D+00  0.0000000000000D+00
147  1.4600000000000D+00  0.0000000000000D+00  0.0000000000000D+00
148  1.4700000000000D+00  0.0000000000000D+00  0.0000000000000D+00
149  1.4800000000000D+00  0.0000000000000D+00  0.0000000000000D+00
150  1.4900000000000D+00  0.0000000000000D+00  0.0000000000000D+00
151  1.5000000000000D+00  0.0000000000000D+00  0.0000000000000D+00
152  1.5100000000000D+00  0.0000000000000D+00  0.0000000000000D+00
153  1.5200000000000D+00  0.0000000000000D+00  0.0000000000000D+00
154  1.5300000000000D+00  0.0000000000000D+00  0.0000000000000D+00
155  1.5400000000000D+00  0.0000000000000D+00  0.0000000000000D+00
156  1.5500000000000D+00  0.0000000000000D+00  0.0000000000000D+00
157  1.5600000000000D+00  0.0000000000000D+00  0.0000000000000D+00
158  1.5700000000000D+00  0.0000000000000D+00  0.0000000000000D+00
159  1.5800000000000D+00  0.0000000000000D+00  0.0000000000000D+00
160  1.5900000000000D+00  0.0000000000000D+00  0.0000000000000D+00
161  1.6000000000000D+00  0.0000000000000D+00  0.0000000000000D+00
162  1.6100000000000D+00  0.0000000000000D+00  0.0000000000000D+00
163  1.6200000000000D+00  0.0000000000000D+00  0.0000000000000D+00
164  1.6300000000000D+00  0.0000000000000D+00  0.0000000000000D+00
165  1.6400000000000D+00  0.0000000000000D+00  0.0000000000000D+00
166  1.6500000000000D+00  0.0000000000000D+00  0.0000000000000D+00
167  1.6600000000000D+00  0.0000000000000D+00  0.0000000000000D+00
168  1.6700000000000D+00  0.0000000000000D+00  0.0000000000000D+00
169  1.6800000000000D+00  0.0000000000000D+00  0.0000000000000D+00
170  1.6900000000000D+00  0.0000000000000D+00  0.0000000000000D+00
171  1.7000000000000D+00  0.0000000000000D+00  0.0000000000000D+00
172  1.7100000000000D+00  0.0000000000000D+00  0.0000000000000D+00
173  1.7200000000000D+00  0.0000000000000D+00  0.0000000000000D+00
174  1.7300000000000D+00  0.0000000000000D+00  0.0000000000000D+00
175  1.7400000000000D+00  0.0000000000000D+00  0.0000000000000D+00
176  1.7500000000000D+00  0.0000000000000D+00  0.0000000000000D+00
177  1.7600000000000D+00  0.0000000000000D+00  0.0000000000000D+00
178  1.7700000000000D+00  0.0000000000000D+00  0.0000000000000D+00
179  1.7800000000000D+00  0.0000000000000D+00  0.0000000000000D+00
180  1.7900000000000D+00  0.0000000000000D+00  0.0000000000000D+00
181  1.8000000000000D+00  0.0000000000000D+00  0.0000000000000D+00
182  1.8100000000000D+00  0.0000000000000D+00  0.0000000000000D+00
183  1.8200000000000D+00  0.0000000000000D+00  0.0000000000000D+00
184  1.8300000000000D+00  0.0000000000000D+00  0.0000000000000D+00
185  1.8400000000000D+00  0.0000000000000D+00  0.0000000000000D+00
186  1.8500000000000D+00  0.0000000000000D+00  0.0000000000000D+00
187  1.8600000000000D+00  0.0000000000000D+00  0.0000000000000D+00
188  1.8700000000000D+00  0.0000000000000D+00  0.0000000000000D+00
189  1.8800000000000D+00  0.0000000000000D+00  0.0000000000000D+00
190  1.8900000000000D+00  0.0000000000000D+00  0.0000000000000D+00
191  1.9000000000000D+00  0.0000000000000D+00  0.0000000000000D+00
192  1.9100000000000D+00  0.0000000000000D+00  0.0000000000000D+00
193  1.9200000000000D+00  0.0000000000000D+00  0.0000000000000D+00
194  1.9300000000000D+00  0.0000000000000D+00  0.0000000000000D+00
195  1.9400000000000D+00  0.0000000000000D+00  0.0000000000000D+00
196  1.9500000000000D+00  0.0000000000000D+00  0.0000000000000D+00
197  1.9600000000000D+00  0.0000000000000D+00  0.0000000000000D+00
198  1.9700000000000D+00  0.0000000000000D+00  0.0000000000000D+00
199  1.9800000000000D+00  0.0000000000000D+00  0.0000000000000D+00
200  1.9900000000000D+00  0.0000000000000D+00  0.0000000000000D+00
201  2.0000000000000D+00  0.0000000000000D+00  0.0000000000000D+00
202  2.0100000000000D+00  0.0000000000000D+00  0.0000000000000D+00
203  2.0200000000000D+00  0.0000000000000D+00  0.0000000000000D+00
204  2.0300000000000D+00  0.0000000000000D+00  0.0000000000000D+00
205  2.0400000000000D+00  0.0000000000000D+00  0.0000000000000D+00
206  2.0500000000000D+00  0.0000000000000D+00  0.0000000000000D+00
207  2.0600000000000D+00  0.0000000000000D+00  0.0000000000000D+00
208  2.0700000000000D+00  0.0000000000000D+00  0.0000000000000D+00
209  2.0800000000000D+00  0.0000000000000D+00  0.0000000000000D+00
210  2.0900000000000D+00  0.0000000000000D+00  0.0000000000000D+00
211  2.1000000000000D+00  0.0000000000000D+00  0.0000000000000D+00
212  2.1100000000000D+00  0.0000000000000D+00  0.0000000000000D+00
213  2.1200000000000D+00  0.0000000000000D+00  0.0000000000000D+00
214  2.1300000000000D+00  0.0000000000000D+00  0.0000000000000D+00
215  2.1400000000000D+00  0.0000000000000D+00  0.0000000000000D+00
216  2.1500000000000D+00  0.0000000000000D+00  0.0000000000000D+00
217  2.1600000000000D+00  0.0000000000000D+00  0.0000000000000D+00
218  2.1700000000000D+00  0.0000000000000D+00  0.0000000000000D+00
219  2.1800000000000D+00  0.0000000000000D+00  0.0000000000000D+00
220  2.1900000000000D+00  0.0000000000000D+00  0.0000000000000D+00
221  2.2000000000000D+00  0.0000000000000D+00  0.0000000000000D+00
222  2.2100000000000D+00  0.0000000000000D+00  0.0000000000000D+00
223  2.2200000000000D+00  0.0000000000000D+00  0.0000000000000D+00
224  2.2300000000000D+00  0.0000000000000D+00  0.0000000000000D+00
225  2.2400000000000D+00  0.0000000000000D+00  0.0000000000000D+00
226  2.2500000000000D+00  0.0000000000000D+00  0.0000000000000D+00
227  2.2600000000000D+00  0.0000000000000D+00  0.0000000000000D+00
228  2.2700000000000D+00  0.0000000000000D+00  0.0000000000000D+00
229  2.2800000000000D+00  0.0000000000000D+00  0.0000000000000D+00
230  2.2900000000000D+00  0.0000000000000D+00  0.0000000000000D+00
231  2.3000000000000D+00  0.0000000000000D+00  0.0000000000000D+00
232  2.3100000000000D+00  0.0000000000000D+00  0.0000000000000D+00
233  2.3200000000000D+00  0.0000000000000D+00  0.0000000000000D+00
234  2.3300000000000D+00  0.0000000000000D+00  0.0000000000000D+00
235  2.3400000000000D+00  0.0000000000000D+00  0.0000000000000D+00
236  2.3500000000000D+00  0.0000000000000D+00  0.0000000000000D+00
237  2.3600000000000D+00  0.0000000000000D+00  0.0000000000000D+00
238  2.3700000000000D+00  0.0000000000000D+00  0.0000000000000D+00
239  2.3800000000000D+00  0.0000000000000D+00  0.0000000000000D+00
240  2.3900000000000D+00  0.0000000000000D+00  0.0000000000000D+00
241  2.4000000000000D+00  0.0000000000000D+00  0.0000000000000D+00
242  2.4100000000000D+00  0.0000000000000D+00  0.0000000000000D+00
243  2.4200000000000D+00  0.0000000000000D+00  0.0000000000000D+00
244  2.4300000000000D+00  0.0000000000000D+00  0.0000000000000D+00
245  2.4400000000000D+00  0.0000000000000D+00  0.0000000000000D+00
246  2.4500000000000D+00  0.0000000000000D+00  0.0000000000000D+00
247  2.4600000000000D+00  0.0000000000000D+00  0.0000000000000D+00
248  2.4700000000000D+00  0.0000000000000D+00  0.0000000000000D+00
249  2.4800000000000D+00  0.0000000000000D+00  0.0000000000000D+00
250  2.4900000000000D+00  0.0000000000000D+00  0.0000000000000D+00
251  2.5000000000000D+00  0.0000000000000D+00  0.0000000000000D+00
252  2.5100000000000D+00  0.0000000000000D+00  0.0000000000000D+00
253  2.5200000000000D+00  0.0000000000000D+00  0.0000000000000D+00
254  2.5300000000000D+00  0.0000000000000D+00  0.0000000000000D+00
255  2.5400000000000D+00  0.0000000000000D+00  0.0000000000000D+00
256  2.5500000000000D+00  0.0000000000000D+00  0.0000000000000D+00
257  2.5600000000000D+00  0.0000000000000D+00  0.0000000000000D+00
258  2.5700000000000D+00  0.0000000000000D+00  0.0000000000000D+00
259  2.5800000000000D+00  0.0000000000000D+00  0.0000000000000D+00
260  2.5900000000000D+00  0.0000000000000D+00  0.0000000000000D+00
261  2.6000000000000D+00  0.0000000000000D+00  0.0000000000000D+00
262  2.6100000000000D+00  0.0000000000000D+00  0.0000000000000D+00
263  2.6200000000000D+00  0.0000000000000D+00  0.0000000000000D+00
264  2.6300000000000D+00  0.0000000000000D+00  0.0000000000000D+00
265  2.6400000000000D+00  0.0000000000000D+00  0.0000000000000D+00
266  2.6500000000000D+00  0.0000000000000D+00  0.0000000000000D+00
267  2.6600000000000D+00  0.0000000000000D+00  0.0000000000000D+00
268  2.6700000000000D+00  0.0000000000000D+00  0.0000000000000D+00
269  2.6800000000000D+00  0.0000000000000D+00  0.0000000000000D+00
270  2.6900000000000D+00  0.0000000000000D+00  0.0000000000000D+00
271  2.7000000000000D+00  0.0000000000000D+00  0.0000000000000D+00
272  2.7100000000000D+00  0.0000000000000D+00  0.0000000000000D+00
273  2.7200000000000D+00  0.0000000000000D+00  0.0000000000000D+00
274  2.7300000000000D+00  0.0000000000000D+00  0.0000000000000D+00
275  2.7400000000000D+00  0.0000000000000D+00  0.0000000000000D+00
276  2.7500000000000D+00  0.0000000000000D+00  0.0000000000000D+00
277  2.7600000000000D+00  0.0000000000000D+00  0.0000000000000D+00
278  2.7700000000000D+00  0.0000000000000D+00  0.0000000000000D+00
279  2.7800000000000D+00  0.0000000000000D+00  0.0000000000000D+00
280  2.7900000000000D+00  0.0000000000000D+00  0.0000000000000D+00
281  2.8000000000000D+00  0.0000000000000D+00  0.0000000000000D+00
282  2.8100000000000D+00  0.0000000000000D+00  0.0000000000000D+00
283  2.8200000000000D+00  0.0000000000000D+00  0.0000000000000D+00
284  2.8300000000000D+00  0.0000000000000D+00  0.0000000000000D+00
285  2.8400000000000D+00  0.0000000000000D+00  0.0000000000000D+00
286  2.8500000000000D+00  0.0000000000000D+00  0.0000000000000D+00
287  2.8600000000000D+00  0.0000000000000D+00  0.0000000000000D+00
288  2.8700000000000D+00  0.0000000000000D+00  0.0000000000000D+00
289  2.8800000000000D+00  0.0000000000000D+00  0.0000000000000D+00
290  2.8900000000000D+00  0.0000000000000D+00  0.0000000000000D+00
291  2.9000000000000D+00  0.0000000000000D+00  0.0000000000000D+00
292  2.9100000000000D+00  0.0000000000000D+00  0.0000000000000D+00
293  2.9200000000000D+00  0.0000000000000D+00  0.0000000000000D+00
294  2.9300000000000D+00  0.0000000000000D+00  0.0000000000000D+00
295  2.9400000000000D+00  0.0000000000000D+00  0.0000000000000D+00
296  2.9500000000000D+00  0.0000000000000D+00  0.0000000000000D+00
297  2.9600000000000D+00  0.0000000000000D+00  0.0000000000000D+00
298  2.9700000000000D+00  0.0000000000000D+00  0.0000000000000D+00
299  2.9800000000000D+00  0.0000000000000D+00  0.0000000000000D+00
300  2.9900000000000D+00  0.0000000000000D+00  0.0000000000000D+00
301  3.0000000000000D+00  0.0000000000000D+00  0.0000000000000D+00
302  3.0100000000000D+00  0.0000000000000D+00  0.0000000000000D+00
303  3.0200000000000D+00  0.0000000000000D+00  0.0000000000000D+00
304  3.0300000000000D+00  0.0000000000000D+00  0.0000000000000D+00
305  3.0400000000000D+00  0.0000000000000D+00  0.0000000000000D+00
306  3.0500000000000D+00  0.0000000000000D+00  0.0000000000000D+00
307  3.0600000000000D+00  0.0000000000000D+00  0.0000000000000D+00
308  3.0700000000000D+00  0.0000000000000D+00  0.0000000000000D+00
309  3.0800000000000D+00  0.0000000000000D+00  0.0000000000000D+00
310  3.0900000000000D+00  0.0000000000000D+00  0.0000000000000D+00
311  3.1000000000000D+00  0.0000000000000D+00  0.0000000000000D+00
312  3.1100000000000D+00  0.0000000000000D+00  0.0000000000000D+00
313  3.1200000000000D+00  0.0000000000000D+00  0.0000000000000D+00
314  3.1300000000000D+00  0.0000000000000D+00  0.0000000000000D+00
315  3.1400000000000D+00  0.0000000000000D+00  0.0000000000000D+00
316  3.1500000000000D+00  0.0000000000000D+00  0.0000000000000D+00
317  3.1600000000000D+00  0.0000000000000D+00  0.0000000000000D+00
318  3.1700000000000D+00  0.0000000000000D+00  0.0000000000000D+00
319  3.1800000000000D+00  0.0000000000000D+00  0.0000000000000D+00
320  3.1900000000000D+00  0.0000000000000D+00  0.0000000000000D+00
321  3.2000000000000D+00  0.0000000000000D+00  0.0000000000000D+00
322  3.2100000000000D+00  0.0000000000000D+00  0.0000000000000D+00
323  3.2200000000000D+00  0.0000000000000D+00  0.0000000000000D+00
324  3.2300000000000D+00  0.0000000000000D+00  0.0000000000000D+00
325  3.2400000000000D+00  0.0000000000000D+00  0.0000000000000D+00
326  3.2500000000000D+00  0.0000000000000D+00  0.0000000000000D+00
327  3.2600000000000D+00  0.0000000000000D+00  0.0000000000000D+00
328  3.2700000000000D+00  0.0000000000000D+00  0.0000000000000D+00
329  3.2800000000000D+00  0.0000000000000D+00  0.0000000000000D+00
330  3.2900000000000D+00  0.0000000000000D+00  0.0000000000000D+00
331  3.3000000000000D+00  0.0000000000000D+00  0.0000000000000D+00
332  3.3100000000000D+00  0.0000000000000D+00  0.0000000000000D+00
333  3.3200000000000D+00  0.0000000000000D+00  0.0000000000000D+00
334  3.3300000000000D+00  0.0000000000000D+00  0.0000000000000D+00
335  3.3400000000000D+00  0.0000000000000D+00  0.0000000000000D+00
336  3.3500000000000D+00  0.0000000000000D+00  0.0000000000000D+00
337  3.3600000000000D+00  0.0000000000000D+00  0.0000000000000D+00
338  3.3700000000000D+00  0.0000000000000D+00  0.0000000000000D+00
339  3.3800000000000D+00  0.0000000000000D+00  0.0000000000000D+00
340  3.3900000000000D+00  0.0000000000000D+00  0.0000000000000D+00
341  3.4000000000000D+00  0.0000000000000D+00  0.0000000000000D+00
342  3.4100000000000D+00  0.0000000000000D+00  0.0000000000000D+00
343  3.4200000000000D+00  0.0000000000000D+00  0.0000000000000D+00
344  3.4300000000000D+00  0.0000000000000D+00  0.0000000000000D+00
345  3.4400000000000D+00  0.0000000000000D+00  0.0000000000000D+00
346  3.4500000000000D+00  0.0000000000000D+00  0.0000000000000D+00
347  3.4600000000000D+00  0.0000000000000D+00  0.0000000000000D+00
348  3.4700000000000D+00  0.0000000000000D+00  0.0000000000000D+00
349  3.4800000000000D+00  0.0000000000000D+00  0.0000000000000D+00
350  3.4900000000000D+00  0.0000000000000D+00  0.0000000000000D+00
351  3.5000000000000D+00  0.0000000000000D+00  0.0000000000000D+00
352  3.5100000000000D+00  0.0000000000000D+00  0.0000000000000D+00
353  3.5200000000000D+00  0.0000000000000D+00  0.0000000000000D+00
354  3.5300000000000D+00  0.0000000000000D+00  0.0000000000000D+00
355  3.5400000000000D+00  0.0000000000000D+00  0.0000000000000D+00
356  3.5500000000000D+00  0.0000000000000D+00  0.0000000000000D+00
357  3.5600000000000D+00  0.0000000000000D+00  0.0000000000000D+00
358  3.5700000000000D+00  0.0000000000000D+00  0.0000000000000D+00
359  3.5800000000000D+00  0.0000000000000D+00  0.0000000000000D+00
360  3.5900000000000D+00  0.0000000000000D+00  0.0000000000000D+00
361  3.6000000000000D+00  0.0000000000000D+00  0.0000000000000D+00
362  3.6100000000000D+00  0.0000000000000D+00  0.0000000000000D+00
363  3.6200000000000D+00  0.0000000000000D+00  0.0000000000000D+00
364  3.6300000000000D+00  0.0000000000000D+00  0.0000000000000D+00
365  3.6400000000000D+00  0.0000000000000D+00  0.0000000000000D+00
366  3.6500000000000D+00  0.0000000000000D+00  0.0000000000000D+00
367  3.6600000000000D+00  0.0000000000000D+00  0.0000000000000D+00
368  3.6700000000000D+00  0.0000000000000D+00  0.0000000000000D+00
369  3.6800000000000D+00  0.0000000000000D+00  0.0000000000000D+00
370  3.6900000000000D+00  0.0000000000000D+00  0.0000000000000D+00
371  3.7000000000000D+00  0.0000000000000D+00  0.0000000000000D+00
372  3.7100000000000D+00  0.0000000000000D+00  0.0000000000000D+00
373  3.7200000000000D+00  0.0000000000000D+00  0.0000000000000D+00
374  3.7300000000000D+00  0.0000000000000D+00  0.0000000000000D+00
375  3.7400000000000D+00  0.0000000000000D+00  0.0000000000000D+00
376  3.7500000000000D+00  0.0000000000000D+00  0.0000000000000D+00
377  3.7600000000000D+00  0.0000000000000D+00  0.0000000000000D+00
378  3.7700000000000D+00  0.0000000000000D+00  0.0000000000000D+00
379  3.7800000000000D+00  0.0000000000000D+00  0.0000000000000D+00
380  3.7900000000000D+00  0.0000000000000D+00  0.0000000000000D+00
381  3.8000000000000D+00  0.0000000000000D+00  0.0000000000000D+00
382  3.8100000000000D+00  0.0000000000000D+00  0.0000000000000D+00
383  3.8200000000000D+00  0.0000000000000D+00  0.0000000000000D+00
384  3.8300000000000D+00  0.0000000000000D+00  0.0000000000000D+00
385  3.8400000000000D+00  0.0000000000000D+00  0.0000000000000D+00
386  3.8500000000000D+00  0.0000000000000D+00  0.0000000000000D+00
387  3.8600000000000D+00  0.0000000000000D+00  0.0000000000000D+00
388  3.8700000000000D+00  0.0000000000000D+00  0.0000000000000D+00
389  3.8800000000000D+00  0.0000000000000D+00  0.0000000000000D+00
390  3.8900000000000D+00  0.0000000000000D+00  0.0000000000000D+00
391  3.9000000000000D+00  0.0000000000000D+00  0.0000000000000D+00
392  3.9100000000000D+00  0.0000000000000D+00  0.0000000000000D+00
393  3.9200000000000D+00  0.0000000000000D+00  0.0000000000000D+00
394  3.9300000000000D+00  0.0000000000000D+00  0.0000000000000D+00
395  3.9400000000000D+00  0.0000000000000D+00  0.0000000000000D+00
396  3.9500000000000D+00  0.0000000000000D+00  0.0000000000000D+00
397  3.9600000000000D+00  0.0000000000000D+00  0.0000000000000D+00
398  3.9700000000000D+00  0.0000000000000D+00  0.0000000000000D+00
399  3.9800000000000D+00  0.0000000000000D+00  0.0000000000000D+00
400  3.9900000000000D+00  0.0000000000000D+00  0.0000000000000D+00
401  4.0000000000000D+00  0.0000000000000D+00  0.0000000000000D+00
402  4.0100000000000D+00  0.0000000000000D+00  0.0000000000000D+00
403  4.0200000000000D+00  0.0000000000000D+00  0.0000000000000D+00
404  4.0300000000000D+00  0.0000000000000D+00  0.0000000000000D+00
405  4.0400000000000D+00  0.0000000000000D+00  0.0000000000000D+00
406  4.0500000000000D+00  0.0000000000000D+00  0.0000000000000D+00
407  4.0600000000000D+00  0.0000000000000D+00  0.0000000000000D+00
408  4.0700000000000D+00  0.0000000000000D+00  0.0000000000000D+00
409  4.0800000000000D+00  0.0000000000000D+00  0.0000000000000D+00
410  4.0900000000000D+00  0.0000000000000D+00  0.0000000000000D+00
411  4.1000000000000D+00  0.0000000000000D+00  0.0000000000000D+00
412  4.1100000000000D+00  0.0000000000000D+00  0.0000000000000D+00
413  4.1200000000000D+00  0.0000000000000D+00  0.0000000000000D+00
414  4.1300000000000D+00  0.0000000000000D+00  0.0000000000000D+00
415  4.1400000000000D+00  0.0000000000000D+00  0.0000000000000D+00
416  4.1500000000000D+00  0.0000000000000D+00  0.0000000000000D+00
417  4.1600000000000D+00  0.0000000000000D+00  0.0000000000000D+00
418  4.1700000000000D+00  0.0000000000000D+00  0.0000000000000D+00
419  4.1800000000000D+00  0.0000000000000D+00  0.0000000000000D+00
420  4.1900000000000D+00  0.0000000000000D+00  0.0000000000000D+00
421  4.2000000000000D+00  0.0000000000000D+00  0.0000000000000D+00
422  4.2100000000000D+00  0.0000000000000D+00  0.0000000000000D+00
423  4.2200000000000D+00  0.0000000000000D+00  0.0000000000000D+00
424  4.2300000000000D+00  0.0000000000000D+00  0.0000000000000D+00
425  4.2400000000000D+00  0.0000000000000D+00  0.0000000000000D+00
426  4.2500000000000D+00  0.0000000000000D+00  0.0000000000000D+00
427  4.2600000000000D+00  0.0000000000000D+00  0.0000000000000D+00
428  4.2700000000000D+00  0.0000000000000D+00  0.0000000000000D+00
429  4.2800000000000D+00  0.0000000000000D+00  0.0000000000000D+00
430  4.2900000000000D+00  0.0000000000000D+00  0.0000000000000D+00
431  4.3000000000000D+00  0.0000000000000D+00  0.0000000000000D+00
432  4.3100000000000D+00  0.0000000000000D+00  0.0000000000000D+00
433  4.3200000000000D+00  0.0000000000000D+00  0.0000000000000D+00
434  4.3300000000000D+00  0.0000000000000D+00  0.0000000000000D+00
435  4.3400000000000D+00  0.0000000000000D+00  0.0000000000000D+00
436  4.3500000000000D+00  0.0000000000000D+00  0.0000000000000D+00
437  4.3600000000000D+00  0.0000000000000D+00  0.0000000000000D+00
438  4.3700000000000D+00  0.0000000000000D+00  0.0000000000000D+00
439  4.3800000000000D+00  0.0000000000000D+00  0.0000000000000D+00
440  4.3900000000000D+00  0.0000000000000D+00  0.0000000000000D+00
441  4.4000000000000D+00  0.0000000000000D+00  0.0000000000000D+00
442  4.4100000000000D+00  0.0000000000000D+00  0.0000000000000D+00
443  4.4200000000000D+00  0.0000000000000D+00  0.0000000000000D+00