Mn    ONCVPSP-3.3.0  r_core=   1.41250   1.20960   1.61055
     25.0000     15.0000      171221    zatom,zion,pspd
     8   -1012   2     4   600     0    pspcod,pspxc,lmax,lloc,mmax,r2well
  5.99000000  4.00000000  0.00000000    rchrg fchrg qchrg
     2     3     2     0    nproj
     3     1           extension_switch
     4     2     0    nprojso
   0                         1.5413843124854D+00  9.4323431943718D+00
     1  0.0000000000000D+00 -5.7356707924838D-10  3.0840185960557D-10
     2  1.0000000000000D-02 -3.1656201524388D-03  8.3094884873606D-02
     3  2.0000000000000D-02 -6.3023659974442D-03  1.6600532905772D-01
     4  3.0000000000000D-02 -9.3806153648831D-03  2.4854691868129D-01
     5  4.0000000000000D-02 -1.2369263271268D-02  3.3053529944829D-01
     6  5.0000000000000D-02 -1.5235012646405D-02  4.1178622119144D-01
     7  6.0000000000000D-02 -1.7941703210406D-02  4.9211559992503D-01
     8  7.0000000000000D-02 -2.0449690539234D-02  5.7133960286457D-01
     9  8.0000000000000D-02 -2.2715286783399D-02  6.4927476157287D-01
    10  9.0000000000000D-02 -2.4690273797693D-02  7.2573811801226D-01
    11  1.0000000000000D-01 -2.6321498606372D-02  8.0054740783536D-01
    12  1.1000000000000D-01 -2.7550560176077D-02  8.7352128473611D-01
    13  1.2000000000000D-01 -2.8313595406819D-02  9.4447958911440D-01
    14  1.3000000000000D-01 -2.8541171089854D-02  1.0132436636861D+00
    15  1.4000000000000D-01 -2.8158287331159D-02  1.0796367180036D+00
    16  1.5000000000000D-01 -2.7084496612805D-02  1.1434842431446D+00
    17  1.6000000000000D-01 -2.5234141274345D-02  1.2046144770893D+00
    18  1.7000000000000D-01 -2.2516710756627D-02  1.2628589205415D+00
    19  1.8000000000000D-01 -1.8837318474604D-02  1.3180529021706D+00
    20  1.9000000000000D-01 -1.4097296689470D-02  1.3700361914622D+00
    21  2.0000000000000D-01 -8.1949062481413D-03  1.4186536565789D+00
    22  2.1000000000000D-01 -1.0261565657646D-03  1.4637559638517D+00
    23  2.2000000000000D-01  7.5142702404389D-03  1.5052003147629D+00
    24  2.3000000000000D-01  1.7531998583856D-02  1.5428512155423D+00
    25  2.4000000000000D-01  2.9131850896225D-02  1.5765812738023D+00
    26  2.5000000000000D-01  4.2416661557534D-02  1.6062720159726D+00
    27  2.6000000000000D-01  5.7486024668916D-02  1.6318147186934D+00
    28  2.7000000000000D-01  7.4434988182154D-02  1.6531112467707D+00
    29  2.8000000000000D-01  9.3352707899795D-02  1.6700748898190D+00
    30  2.9000000000000D-01  1.1432107573408D-01  1.6826311892999D+00
    31  3.0000000000000D-01  1.3741333735014D-01  1.6907187473360D+00
    32  3.1000000000000D-01  1.6269271490865D-01  1.6942900084273D+00
    33  3.2000000000000D-01  1.9021105105651D-01  1.6933120050392D+00
    34  3.3000000000000D-01  2.2000749058301D-01  1.6877670579595D+00
    35  3.4000000000000D-01  2.5210721625791D-01  1.6776534223544D+00
    36  3.5000000000000D-01  2.8652025529137D-01  1.6629858705737D+00
    37  3.6000000000000D-01  3.2324037260172D-01  1.6437962029834D+00
    38  3.7000000000000D-01  3.6224406664333D-01  1.6201336784267D+00
    39  3.8000000000000D-01  4.0348968293551D-01  1.5920653563362D+00
    40  3.9000000000000D-01  4.4691665964438D-01  1.5596763430411D+00
    41  4.0000000000000D-01  4.9244491861038D-01  1.5230699354256D+00
    42  4.1000000000000D-01  5.3997441408742D-01  1.4823676557984D+00
    43  4.2000000000000D-01  5.8938485017602D-01  1.4377091726234D+00
    44  4.3000000000000D-01  6.4053557650035D-01  1.3892521026308D+00
    45  4.4000000000000D-01  6.9326567011031D-01  1.3371716907682D+00
    46  4.5000000000000D-01  7.4739420989649D-01  1.2816603654600D+00
    47  4.6000000000000D-01  8.0272074800515D-01  1.2229271677065D+00
    48  4.7000000000000D-01  8.5902598084486D-01  1.1611970536644D+00
    49  4.8000000000000D-01  9.1607262030784D-01  1.0967100715004D+00
    50  4.9000000000000D-01  9.7360646380234D-01  1.0297204144820D+00
    51  5.0000000000000D-01  1.0313576596298D+00  9.6049535346182D-01
    52  5.1000000000000D-01  1.0890421621616D+00  8.8931405310354D-01
    53  5.2000000000000D-01  1.1463633691956D+00  8.1646627738502D-01
    54  5.3000000000000D-01  1.2030139318269D+00  7.4225099107622D-01
    55  5.4000000000000D-01  1.2586777251679D+00  6.6697486502404D-01
    56  5.5000000000000D-01  1.3130319663232D+00  5.9095069416146D-01
    57  5.6000000000000D-01  1.3657494641938D+00  5.1449573818849D-01
    58  5.7000000000000D-01  1.4165009839555D+00  4.3792999583385D-01
    59  5.8000000000000D-01  1.4649577074766D+00  3.6157442448585D-01
    60  5.9000000000000D-01  1.5107937694954D+00  2.8574911777223D-01
    61  6.0000000000000D-01  1.5536888481226D+00  2.1077145435583D-01
    62  6.1000000000000D-01  1.5933307871540D+00  1.3695423179308D-01
    63  6.2000000000000D-01  1.6294182268072D+00  6.4603799761428D-02
    64  6.3000000000000D-01  1.6616632188471D+00 -5.9817927033620D-03
    65  6.4000000000000D-01  1.6897938016324D+00 -7.4514621116508D-02
    66  6.5000000000000D-01  1.7135565104346D+00 -1.4071866569063D-01
    67  6.6000000000000D-01  1.7327187984336D+00 -2.0433153288367D-01
    68  6.7000000000000D-01  1.7470713441031D+00 -2.6510610373021D-01
    69  6.8000000000000D-01  1.7564302212551D+00 -3.2281209469537D-01
    70  6.9000000000000D-01  1.7606389088197D+00 -3.7723751729388D-01
    71  7.0000000000000D-01  1.7595701184922D+00 -4.2819002335707D-01
    72  7.1000000000000D-01  1.7531274196742D+00 -4.7549812360944D-01
    73  7.2000000000000D-01  1.7412466426556D+00 -5.1901226812093D-01
    74  7.3000000000000D-01  1.7238970427366D+00 -5.5860577823624D-01
    75  7.4000000000000D-01  1.7010822099352D+00 -5.9417562072849D-01
    76  7.5000000000000D-01  1.6728407110661D+00 -6.2564301617750D-01
    77  7.6000000000000D-01  1.6392464532840D+00 -6.5295387492133D-01
    78  7.7000000000000D-01  1.6004087606450D+00 -6.7607905536180D-01
    79  7.8000000000000D-01  1.5564721578170D+00 -6.9501444090467D-01
    80  7.9000000000000D-01  1.5076158577521D+00 -7.0978083337035D-01
    81  8.0000000000000D-01  1.4540529528948D+00 -7.2042366231194D-01
    82  8.1000000000000D-01  1.3960293122917D+00 -7.2701251129561D-01
    83  8.2000000000000D-01  1.3338221897923D+00 -7.2964046383001D-01
    84  8.3000000000000D-01  1.2677385513295D+00 -7.2842327325456D-01
    85  8.4000000000000D-01  1.1981131320334D+00 -7.2349836249377D-01
    86  8.5000000000000D-01  1.1253062366178D+00 -7.1502366114226D-01
    87  8.6000000000000D-01  1.0497012990677D+00 -7.0317628884342D-01
    88  8.7000000000000D-01  9.7170222010995D-01 -6.8815109535052D-01
    89  8.8000000000000D-01  8.9173050324744D-01 -6.7015906899423D-01
    90  8.9000000000000D-01  8.1022221224701D-01 -6.4942562651210D-01
    91  9.0000000000000D-01  7.2762477487412D-01 -6.2618879830914D-01
    92  9.1000000000000D-01  6.4439365933357D-01 -6.0069732420061D-01
    93  9.2000000000000D-01  5.6098895129049D-01 -5.7320867552850D-01
    94  9.3000000000000D-01  4.7787186048755D-01 -5.4398702023073D-01
    95  9.4000000000000D-01  3.9550118682886D-01 -5.1330114796855D-01
    96  9.5000000000000D-01  3.1432977635241D-01 -4.8142237277422D-01
    97  9.6000000000000D-01  2.3480099776373D-01 -4.4862243086902D-01
    98  9.7000000000000D-01  1.5734527012903D-01 -4.1517139130808D-01
    99  9.8000000000000D-01  8.2376671939221D-02 -3.8133559693891D-01
   100  9.9000000000000D-01  1.0289661051379D-02 -3.4737565281332D-01
   101  1.0000000000000D+00 -5.8544066002780D-02 -3.1354447866943D-01
   102  1.0100000000000D+00 -1.2377854816488D-01 -2.8008544141176D-01
   103  1.0200000000000D+00 -1.8509634194083D-01 -2.4723058263240D-01
   104  1.0300000000000D+00 -2.4221108771831D-01 -2.1519895525291D-01
   105  1.0400000000000D+00 -2.9486983883284D-01 -1.8419508215887D-01
   106  1.0500000000000D+00 -3.4285513427521D-01 -1.5440754841263D-01
   107  1.0600000000000D+00 -3.8598679851292D-01 -1.2600773722580D-01
   108  1.0700000000000D+00 -4.2412345474830D-01 -9.9148718316015D-02
   109  1.0800000000000D+00 -4.5716374087879D-01 -7.3964295660496D-02
   110  1.0900000000000D+00 -4.8504722034708D-01 -5.0568220054822D-02
   111  1.1000000000000D+00 -5.0775498356873D-01 -2.9053569958573D-02
   112  1.1100000000000D+00 -5.2530993856107D-01 -9.4923024892221D-03
   113  1.1200000000000D+00 -5.3777679303020D-01  8.0650255840189D-03
   114  1.1300000000000D+00 -5.4526173279270D-01  2.3589368446182D-02
   115  1.1400000000000D+00 -5.4791180537559D-01  3.7073137245960D-02
   116  1.1500000000000D+00 -5.4591402029002D-01  4.8529986791335D-02
   117  1.1600000000000D+00 -5.3949418090973D-01  5.7994450136416D-02
   118  1.1700000000000D+00 -5.2891546941000D-01  6.5521431291588D-02
   119  1.1800000000000D+00 -5.1447677661746D-01  7.1185554410888D-02
   120  1.1900000000000D+00 -4.9651092397867D-01  7.5080433737884D-02
   121  1.2000000000000D+00 -4.7538217768547D-01  7.7317611796964D-02
   122  1.2100000000000D+00 -4.5148548226742D-01  7.8026195608927D-02
   123  1.2200000000000D+00 -4.2524088739329D-01  7.7350444209931D-02
   124  1.2300000000000D+00 -3.9708283659885D-01  7.5445157839068D-02
   125  1.2400000000000D+00 -3.6744904326249D-01  7.2470700446329D-02
   126  1.2500000000000D+00 -3.3677421386794D-01  6.8589991209385D-02
   127  1.2600000000000D+00 -3.0548792105071D-01  6.3967187103363D-02
   128  1.2700000000000D+00 -2.7401059282945D-01  5.8765596138075D-02
   129  1.2800000000000D+00 -2.4275016905179D-01  5.3145863732495D-02
   130  1.2900000000000D+00 -2.1209872126295D-01  4.7264151323512D-02
   131  1.3000000000000D+00 -1.8242923868565D-01  4.1270394333955D-02
   132  1.3100000000000D+00 -1.5409256719741D-01  3.5306638285870D-02
   133  1.3200000000000D+00 -1.2741453461769D-01  2.9505470584895D-02
   134  1.3300000000000D+00 -1.0269329034486D-01  2.3988563499777D-02
   135  1.3400000000000D+00 -8.0196882578536D-02  1.8865341208868D-02
   136  1.3500000000000D+00 -6.0161094486656D-02  1.4231782755611D-02
   137  1.3600000000000D+00 -4.2787562157944D-02  1.0169373567394D-02
   138  1.3700000000000D+00 -2.8251555465045D-02  6.7465043219800D-03
   139  1.3800000000000D+00 -1.6645843008635D-02  4.0042308606042D-03
   140  1.3900000000000D+00 -8.0533114457422D-03  1.9735435523966D-03
   141  1.4000000000000D+00 -2.8009649569831D-03  7.4261549766928D-04
   142  1.4100000000000D+00 -5.0154497362051D-04  2.0406156616094D-04
   143  1.4200000000000D+00  7.1077030192877D-05  3.0491277507555D-05
   144  1.4300000000000D+00 -4.8932361952219D-06 -1.8681811485226D-07
   145  1.4400000000000D+00 -3.7144291907359D-05  1.2803708307662D-06
   146  1.4500000000000D+00  3.8952236656508D-06  3.8720037860750D-07
   147  1.4600000000000D+00  4.0937073007874D-06  2.2075321060775D-07
   148  1.4700000000000D+00  6.5322800408354D-07 -3.6729281326598D-07
   149  1.4800000000000D+00  1.8093188600615D-07 -1.0173320954596D-07
   150  1.4900000000000D+00  0.0000000000000D+00  0.0000000000000D+00
   151  1.5000000000000D+00  0.0000000000000D+00  0.0000000000000D+00
   152  1.5100000000000D+00  0.0000000000000D+00  0.0000000000000D+00
   153  1.5200000000000D+00  0.0000000000000D+00  0.0000000000000D+00
   154  1.5300000000000D+00  0.0000000000000D+00  0.0000000000000D+00
   155  1.5400000000000D+00  0.0000000000000D+00  0.0000000000000D+00
   156  1.5500000000000D+00  0.0000000000000D+00  0.0000000000000D+00
   157  1.5600000000000D+00  0.0000000000000D+00  0.0000000000000D+00
   158  1.5700000000000D+00  0.0000000000000D+00  0.0000000000000D+00
   159  1.5800000000000D+00  0.0000000000000D+00  0.0000000000000D+00
   160  1.5900000000000D+00  0.0000000000000D+00  0.0000000000000D+00
   161  1.6000000000000D+00  0.0000000000000D+00  0.0000000000000D+00
   162  1.6100000000000D+00  0.0000000000000D+00  0.0000000000000D+00
   163  1.6200000000000D+00  0.0000000000000D+00  0.0000000000000D+00
   164  1.6300000000000D+00  0.0000000000000D+00  0.0000000000000D+00
   165  1.6400000000000D+00  0.0000000000000D+00  0.0000000000000D+00
   166  1.6500000000000D+00  0.0000000000000D+00  0.0000000000000D+00
   167  1.6600000000000D+00  0.0000000000000D+00  0.0000000000000D+00
   168  1.6700000000000D+00  0.0000000000000D+00  0.0000000000000D+00
   169  1.6800000000000D+00  0.0000000000000D+00  0.0000000000000D+00
   170  1.6900000000000D+00  0.0000000000000D+00  0.0000000000000D+00
   171  1.7000000000000D+00  0.0000000000000D+00  0.0000000000000D+00
   172  1.7100000000000D+00  0.0000000000000D+00  0.0000000000000D+00
   173  1.7200000000000D+00  0.0000000000000D+00  0.0000000000000D+00
   174  1.7300000000000D+00  0.0000000000000D+00  0.0000000000000D+00
   175  1.7400000000000D+00  0.0000000000000D+00  0.0000000000000D+00
   176  1.7500000000000D+00  0.0000000000000D+00  0.0000000000000D+00
   177  1.7600000000000D+00  0.0000000000000D+00  0.0000000000000D+00
   178  1.7700000000000D+00  0.0000000000000D+00  0.0000000000000D+00
   179  1.7800000000000D+00  0.0000000000000D+00  0.0000000000000D+00
   180  1.7900000000000D+00  0.0000000000000D+00  0.0000000000000D+00
   181  1.8000000000000D+00  0.0000000000000D+00  0.0000000000000D+00
   182  1.8100000000000D+00  0.0000000000000D+00  0.0000000000000D+00
   183  1.8200000000000D+00  0.0000000000000D+00  0.0000000000000D+00
   184  1.8300000000000D+00  0.0000000000000D+00  0.0000000000000D+00
   185  1.8400000000000D+00  0.0000000000000D+00  0.0000000000000D+00
   186  1.8500000000000D+00  0.0000000000000D+00  0.0000000000000D+00
   187  1.8600000000000D+00  0.0000000000000D+00  0.0000000000000D+00
   188  1.8700000000000D+00  0.0000000000000D+00  0.0000000000000D+00
   189  1.8800000000000D+00  0.0000000000000D+00  0.0000000000000D+00
   190  1.8900000000000D+00  0.0000000000000D+00  0.0000000000000D+00
   191  1.9000000000000D+00  0.0000000000000D+00  0.0000000000000D+00
   192  1.9100000000000D+00  0.0000000000000D+00  0.0000000000000D+00
   193  1.9200000000000D+00  0.0000000000000D+00  0.0000000000000D+00
   194  1.9300000000000D+00  0.0000000000000D+00  0.0000000000000D+00
   195  1.9400000000000D+00  0.0000000000000D+00  0.0000000000000D+00
   196  1.9500000000000D+00  0.0000000000000D+00  0.0000000000000D+00
   197  1.9600000000000D+00  0.0000000000000D+00  0.0000000000000D+00
   198  1.9700000000000D+00  0.0000000000000D+00  0.0000000000000D+00
   199  1.9800000000000D+00  0.0000000000000D+00  0.0000000000000D+00
   200  1.9900000000000D+00  0.0000000000000D+00  0.0000000000000D+00
   201  2.0000000000000D+00  0.0000000000000D+00  0.0000000000000D+00
   202  2.0100000000000D+00  0.0000000000000D+00  0.0000000000000D+00
   203  2.0200000000000D+00  0.0000000000000D+00  0.0000000000000D+00
   204  2.0300000000000D+00  0.0000000000000D+00  0.0000000000000D+00
   205  2.0400000000000D+00  0.0000000000000D+00  0.0000000000000D+00
   206  2.0500000000000D+00  0.0000000000000D+00  0.0000000000000D+00
   207  2.0600000000000D+00  0.0000000000000D+00  0.0000000000000D+00
   208  2.0700000000000D+00  0.0000000000000D+00  0.0000000000000D+00
   209  2.0800000000000D+00  0.0000000000000D+00  0.0000000000000D+00
   210  2.0900000000000D+00  0.0000000000000D+00  0.0000000000000D+00
   211  2.1000000000000D+00  0.0000000000000D+00  0.0000000000000D+00
   212  2.1100000000000D+00  0.0000000000000D+00  0.0000000000000D+00
   213  2.1200000000000D+00  0.0000000000000D+00  0.0000000000000D+00
   214  2.1300000000000D+00  0.0000000000000D+00  0.0000000000000D+00
   215  2.1400000000000D+00  0.0000000000000D+00  0.0000000000000D+00
   216  2.1500000000000D+00  0.0000000000000D+00  0.0000000000000D+00
   217  2.1600000000000D+00  0.0000000000000D+00  0.0000000000000D+00
   218  2.1700000000000D+00  0.0000000000000D+00  0.0000000000000D+00
   219  2.1800000000000D+00  0.0000000000000D+00  0.0000000000000D+00
   220  2.1900000000000D+00  0.0000000000000D+00  0.0000000000000D+00
   221  2.2000000000000D+00  0.0000000000000D+00  0.0000000000000D+00
   222  2.2100000000000D+00  0.0000000000000D+00  0.0000000000000D+00
   223  2.2200000000000D+00  0.0000000000000D+00  0.0000000000000D+00
   224  2.2300000000000D+00  0.0000000000000D+00  0.0000000000000D+00
   225  2.2400000000000D+00  0.0000000000000D+00  0.0000000000000D+00
   226  2.2500000000000D+00  0.0000000000000D+00  0.0000000000000D+00
   227  2.2600000000000D+00  0.0000000000000D+00  0.0000000000000D+00
   228  2.2700000000000D+00  0.0000000000000D+00  0.0000000000000D+00
   229  2.2800000000000D+00  0.0000000000000D+00  0.0000000000000D+00
   230  2.2900000000000D+00  0.0000000000000D+00  0.0000000000000D+00
   231  2.3000000000000D+00  0.0000000000000D+00  0.0000000000000D+00
   232  2.3100000000000D+00  0.0000000000000D+00  0.0000000000000D+00
   233  2.3200000000000D+00  0.0000000000000D+00  0.0000000000000D+00
   234  2.3300000000000D+00  0.0000000000000D+00  0.0000000000000D+00
   235  2.3400000000000D+00  0.0000000000000D+00  0.0000000000000D+00
   236  2.3500000000000D+00  0.0000000000000D+00  0.0000000000000D+00
   237  2.3600000000000D+00  0.0000000000000D+00  0.0000000000000D+00
   238  2.3700000000000D+00  0.0000000000000D+00  0.0000000000000D+00
   239  2.3800000000000D+00  0.0000000000000D+00  0.0000000000000D+00
   240  2.3900000000000D+00  0.0000000000000D+00  0.0000000000000D+00
   241  2.4000000000000D+00  0.0000000000000D+00  0.0000000000000D+00
   242  2.4100000000000D+00  0.0000000000000D+00  0.0000000000000D+00
   243  2.4200000000000D+00  0.0000000000000D+00  0.0000000000000D+00
   244  2.4300000000000D+00  0.0000000000000D+00  0.0000000000000D+00
   245  2.4400000000000D+00  0.0000000000000D+00  0.0000000000000D+00
   246  2.4500000000000D+00  0.0000000000000D+00  0.0000000000000D+00
   247  2.4600000000000D+00  0.0000000000000D+00  0.0000000000000D+00
   248  2.4700000000000D+00  0.0000000000000D+00  0.0000000000000D+00
   249  2.4800000000000D+00  0.0000000000000D+00  0.0000000000000D+00
   250  2.4900000000000D+00  0.0000000000000D+00  0.0000000000000D+00
   251  2.5000000000000D+00  0.0000000000000D+00  0.0000000000000D+00
   252  2.5100000000000D+00  0.0000000000000D+00  0.0000000000000D+00
   253  2.5200000000000D+00  0.0000000000000D+00  0.0000000000000D+00
   254  2.5300000000000D+00  0.0000000000000D+00  0.0000000000000D+00
   255  2.5400000000000D+00  0.0000000000000D+00  0.0000000000000D+00
   256  2.5500000000000D+00  0.0000000000000D+00  0.0000000000000D+00
   257  2.5600000000000D+00  0.0000000000000D+00  0.0000000000000D+00
   258  2.5700000000000D+00  0.0000000000000D+00  0.0000000000000D+00
   259  2.5800000000000D+00  0.0000000000000D+00  0.0000000000000D+00
   260  2.5900000000000D+00  0.0000000000000D+00  0.0000000000000D+00
   261  2.6000000000000D+00  0.0000000000000D+00  0.0000000000000D+00
   262  2.6100000000000D+00  0.0000000000000D+00  0.0000000000000D+00
   263  2.6200000000000D+00  0.0000000000000D+00  0.0000000000000D+00
   264  2.6300000000000D+00  0.0000000000000D+00  0.0000000000000D+00
   265  2.6400000000000D+00  0.0000000000000D+00  0.0000000000000D+00
   266  2.6500000000000D+00  0.0000000000000D+00  0.0000000000000D+00
   267  2.6600000000000D+00  0.0000000000000D+00  0.0000000000000D+00
   268  2.6700000000000D+00  0.0000000000000D+00  0.0000000000000D+00
   269  2.6800000000000D+00  0.0000000000000D+00  0.0000000000000D+00
   270  2.6900000000000D+00  0.0000000000000D+00  0.0000000000000D+00
   271  2.7000000000000D+00  0.0000000000000D+00  0.0000000000000D+00
   272  2.7100000000000D+00  0.0000000000000D+00  0.0000000000000D+00
   273  2.7200000000000D+00  0.0000000000000D+00  0.0000000000000D+00
   274  2.7300000000000D+00  0.0000000000000D+00  0.0000000000000D+00
   275  2.7400000000000D+00  0.0000000000000D+00  0.0000000000000D+00
   276  2.7500000000000D+00  0.0000000000000D+00  0.0000000000000D+00
   277  2.7600000000000D+00  0.0000000000000D+00  0.0000000000000D+00
   278  2.7700000000000D+00  0.0000000000000D+00  0.0000000000000D+00
   279  2.7800000000000D+00  0.0000000000000D+00  0.0000000000000D+00
   280  2.7900000000000D+00  0.0000000000000D+00  0.0000000000000D+00
   281  2.8000000000000D+00  0.0000000000000D+00  0.0000000000000D+00
   282  2.8100000000000D+00  0.0000000000000D+00  0.0000000000000D+00
   283  2.8200000000000D+00  0.0000000000000D+00  0.0000000000000D+00
   284  2.8300000000000D+00  0.0000000000000D+00  0.0000000000000D+00
   285  2.8400000000000D+00  0.0000000000000D+00  0.0000000000000D+00
   286  2.8500000000000D+00  0.0000000000000D+00  0.0000000000000D+00
   287  2.8600000000000D+00  0.0000000000000D+00  0.0000000000000D+00
   288  2.8700000000000D+00  0.0000000000000D+00  0.0000000000000D+00
   289  2.8800000000000D+00  0.0000000000000D+00  0.0000000000000D+00
   290  2.8900000000000D+00  0.0000000000000D+00  0.0000000000000D+00
   291  2.9000000000000D+00  0.0000000000000D+00  0.0000000000000D+00
   292  2.9100000000000D+00  0.0000000000000D+00  0.0000000000000D+00
   293  2.9200000000000D+00  0.0000000000000D+00  0.0000000000000D+00
   294  2.9300000000000D+00  0.0000000000000D+00  0.0000000000000D+00
   295  2.9400000000000D+00  0.0000000000000D+00  0.0000000000000D+00
   296  2.9500000000000D+00  0.0000000000000D+00  0.0000000000000D+00
   297  2.9600000000000D+00  0.0000000000000D+00  0.0000000000000D+00
   298  2.9700000000000D+00  0.0000000000000D+00  0.0000000000000D+00
   299  2.9800000000000D+00  0.0000000000000D+00  0.0000000000000D+00
   300  2.9900000000000D+00  0.0000000000000D+00  0.0000000000000D+00
   301  3.0000000000000D+00  0.0000000000000D+00  0.0000000000000D+00
   302  3.0100000000000D+00  0.0000000000000D+00  0.0000000000000D+00
   303  3.0200000000000D+00  0.0000000000000D+00  0.0000000000000D+00
   304  3.0300000000000D+00  0.0000000000000D+00  0.0000000000000D+00
   305  3.0400000000000D+00  0.0000000000000D+00  0.0000000000000D+00
   306  3.0500000000000D+00  0.0000000000000D+00  0.0000000000000D+00
   307  3.0600000000000D+00  0.0000000000000D+00  0.0000000000000D+00
   308  3.0700000000000D+00  0.0000000000000D+00  0.0000000000000D+00
   309  3.0800000000000D+00  0.0000000000000D+00  0.0000000000000D+00
   310  3.0900000000000D+00  0.0000000000000D+00  0.0000000000000D+00
   311  3.1000000000000D+00  0.0000000000000D+00  0.0000000000000D+00
   312  3.1100000000000D+00  0.0000000000000D+00  0.0000000000000D+00
   313  3.1200000000000D+00  0.0000000000000D+00  0.0000000000000D+00
   314  3.1300000000000D+00  0.0000000000000D+00  0.0000000000000D+00
   315  3.1400000000000D+00  0.0000000000000D+00  0.0000000000000D+00
   316  3.1500000000000D+00  0.0000000000000D+00  0.0000000000000D+00
   317  3.1600000000000D+00  0.0000000000000D+00  0.0000000000000D+00
   318  3.1700000000000D+00  0.0000000000000D+00  0.0000000000000D+00
   319  3.1800000000000D+00  0.0000000000000D+00  0.0000000000000D+00
   320  3.1900000000000D+00  0.0000000000000D+00  0.0000000000000D+00
   321  3.2000000000000D+00  0.0000000000000D+00  0.0000000000000D+00
   322  3.2100000000000D+00  0.0000000000000D+00  0.0000000000000D+00
   323  3.2200000000000D+00  0.0000000000000D+00  0.0000000000000D+00
   324  3.2300000000000D+00  0.0000000000000D+00  0.0000000000000D+00
   325  3.2400000000000D+00  0.0000000000000D+00  0.0000000000000D+00
   326  3.2500000000000D+00  0.0000000000000D+00  0.0000000000000D+00
   327  3.2600000000000D+00  0.0000000000000D+00  0.0000000000000D+00
   328  3.2700000000000D+00  0.0000000000000D+00  0.0000000000000D+00
   329  3.2800000000000D+00  0.0000000000000D+00  0.0000000000000D+00
   330  3.2900000000000D+00  0.0000000000000D+00  0.0000000000000D+00
   331  3.3000000000000D+00  0.0000000000000D+00  0.0000000000000D+00
   332  3.3100000000000D+00  0.0000000000000D+00  0.0000000000000D+00
   333  3.3200000000000D+00  0.0000000000000D+00  0.0000000000000D+00
   334  3.3300000000000D+00  0.0000000000000D+00  0.0000000000000D+00
   335  3.3400000000000D+00  0.0000000000000D+00  0.0000000000000D+00
   336  3.3500000000000D+00  0.0000000000000D+00  0.0000000000000D+00
   337  3.3600000000000D+00  0.0000000000000D+00  0.0000000000000D+00
   338  3.3700000000000D+00  0.0000000000000D+00  0.0000000000000D+00
   339  3.3800000000000D+00  0.0000000000000D+00  0.0000000000000D+00
   340  3.3900000000000D+00  0.0000000000000D+00  0.0000000000000D+00
   341  3.4000000000000D+00  0.0000000000000D+00  0.0000000000000D+00
   342  3.4100000000000D+00  0.0000000000000D+00  0.0000000000000D+00
   343  3.4200000000000D+00  0.0000000000000D+00  0.0000000000000D+00
   344  3.4300000000000D+00  0.0000000000000D+00  0.0000000000000D+00
   345  3.4400000000000D+00  0.0000000000000D+00  0.0000000000000D+00
   346  3.4500000000000D+00  0.0000000000000D+00  0.0000000000000D+00
   347  3.4600000000000D+00  0.0000000000000D+00  0.0000000000000D+00
   348  3.4700000000000D+00  0.0000000000000D+00  0.0000000000000D+00
   349  3.4800000000000D+00  0.0000000000000D+00  0.0000000000000D+00
   350  3.4900000000000D+00  0.0000000000000D+00  0.0000000000000D+00
   351  3.5000000000000D+00  0.0000000000000D+00  0.0000000000000D+00
   352  3.5100000000000D+00  0.0000000000000D+00  0.0000000000000D+00
   353  3.5200000000000D+00  0.0000000000000D+00  0.0000000000000D+00
   354  3.5300000000000D+00  0.0000000000000D+00  0.0000000000000D+00
   355  3.5400000000000D+00  0.0000000000000D+00  0.0000000000000D+00
   356  3.5500000000000D+00  0.0000000000000D+00  0.0000000000000D+00
   357  3.5600000000000D+00  0.0000000000000D+00  0.0000000000000D+00
   358  3.5700000000000D+00  0.0000000000000D+00  0.0000000000000D+00
   359  3.5800000000000D+00  0.0000000000000D+00  0.0000000000000D+00
   360  3.5900000000000D+00  0.0000000000000D+00  0.0000000000000D+00
   361  3.6000000000000D+00  0.0000000000000D+00  0.0000000000000D+00
   362  3.6100000000000D+00  0.0000000000000D+00  0.0000000000000D+00
   363  3.6200000000000D+00  0.0000000000000D+00  0.0000000000000D+00
   364  3.6300000000000D+00  0.0000000000000D+00  0.0000000000000D+00
   365  3.6400000000000D+00  0.0000000000000D+00  0.0000000000000D+00
   366  3.6500000000000D+00  0.0000000000000D+00  0.0000000000000D+00
   367  3.6600000000000D+00  0.0000000000000D+00  0.0000000000000D+00
   368  3.6700000000000D+00  0.0000000000000D+00  0.0000000000000D+00
   369  3.6800000000000D+00  0.0000000000000D+00  0.0000000000000D+00
   370  3.6900000000000D+00  0.0000000000000D+00  0.0000000000000D+00
   371  3.7000000000000D+00  0.0000000000000D+00  0.0000000000000D+00
   372  3.7100000000000D+00  0.0000000000000D+00  0.0000000000000D+00
   373  3.7200000000000D+00  0.0000000000000D+00  0.0000000000000D+00
   374  3.7300000000000D+00  0.0000000000000D+00  0.0000000000000D+00
   375  3.7400000000000D+00  0.0000000000000D+00  0.0000000000000D+00
   376  3.7500000000000D+00  0.0000000000000D+00  0.0000000000000D+00
   377  3.7600000000000D+00  0.0000000000000D+00  0.0000000000000D+00
   378  3.7700000000000D+00  0.0000000000000D+00  0.0000000000000D+00
   379  3.7800000000000D+00  0.0000000000000D+00  0.0000000000000D+00
   380  3.7900000000000D+00  0.0000000000000D+00  0.0000000000000D+00
   381  3.8000000000000D+00  0.0000000000000D+00  0.0000000000000D+00
   382  3.8100000000000D+00  0.0000000000000D+00  0.0000000000000D+00
   383  3.8200000000000D+00  0.0000000000000D+00  0.0000000000000D+00
   384  3.8300000000000D+00  0.0000000000000D+00  0.0000000000000D+00
   385  3.8400000000000D+00  0.0000000000000D+00  0.0000000000000D+00
   386  3.8500000000000D+00  0.0000000000000D+00  0.0000000000000D+00
   387  3.8600000000000D+00  0.0000000000000D+00  0.0000000000000D+00
   388  3.8700000000000D+00  0.0000000000000D+00  0.0000000000000D+00
   389  3.8800000000000D+00  0.0000000000000D+00  0.0000000000000D+00
   390  3.8900000000000D+00  0.0000000000000D+00  0.0000000000000D+00
   391  3.9000000000000D+00  0.0000000000000D+00  0.0000000000000D+00
   392  3.9100000000000D+00  0.0000000000000D+00  0.0000000000000D+00
   393  3.9200000000000D+00  0.0000000000000D+00  0.0000000000000D+00
   394  3.9300000000000D+00  0.0000000000000D+00  0.0000000000000D+00
   395  3.9400000000000D+00  0.0000000000000D+00  0.0000000000000D+00
   396  3.9500000000000D+00  0.0000000000000D+00  0.0000000000000D+00
   397  3.9600000000000D+00  0.0000000000000D+00  0.0000000000000D+00
   398  3.9700000000000D+00  0.0000000000000D+00  0.0000000000000D+00
   399  3.9800000000000D+00  0.0000000000000D+00  0.0000000000000D+00
   400  3.9900000000000D+00  0.0000000000000D+00  0.0000000000000D+00
   401  4.0000000000000D+00  0.0000000000000D+00  0.0000000000000D+00
   402  4.0100000000000D+00  0.0000000000000D+00  0.0000000000000D+00
   403  4.0200000000000D+00  0.0000000000000D+00  0.0000000000000D+00
   404  4.0300000000000D+00  0.0000000000000D+00  0.0000000000000D+00
   405  4.0400000000000D+00  0.0000000000000D+00  0.0000000000000D+00
   406  4.0500000000000D+00  0.0000000000000D+00  0.0000000000000D+00
   407  4.0600000000000D+00  0.0000000000000D+00  0.0000000000000D+00
   408  4.0700000000000D+00  0.0000000000000D+00  0.0000000000000D+00
   409  4.0800000000000D+00  0.0000000000000D+00  0.0000000000000D+00
   410  4.0900000000000D+00  0.0000000000000D+00  0.0000000000000D+00
   411  4.1000000000000D+00  0.0000000000000D+00  0.0000000000000D+00
   412  4.1100000000000D+00  0.0000000000000D+00  0.0000000000000D+00
   413  4.1200000000000D+00  0.0000000000000D+00  0.0000000000000D+00
   414  4.1300000000000D+00  0.0000000000000D+00  0.0000000000000D+00
   415  4.1400000000000D+00  0.0000000000000D+00  0.0000000000000D+00
   416  4.1500000000000D+00  0.0000000000000D+00  0.0000000000000D+00
   417  4.1600000000000D+00  0.0000000000000D+00  0.0000000000000D+00
   418  4.1700000000000D+00  0.0000000000000D+00  0.0000000000000D+00
   419  4.1800000000000D+00  0.0000000000000D+00  0.0000000000000D+00
   420  4.1900000000000D+00  0.0000000000000D+00  0.0000000000000D+00
   421  4.2000000000000D+00  0.0000000000000D+00  0.0000000000000D+00
   422  4.2100000000000D+00  0.0000000000000D+00  0.0000000000000D+00