O     ONCVPSP-4.0.1  r_core=   1.35491   1.45575   1.35491
      8.0000      6.0000      211008    zatom,zion,pspd
     8   -1012   2     4   600     0    pspcod,pspxc,lmax,lloc,mmax,r2well
  5.99000000  4.00000000  0.00000000    rchrg fchrg qchrg
     2     2     1     0    nproj
     3     1           extension_switch
     3     2     0    nprojso
   0                         5.8723407335996E+00  7.7333399753813E-01
     1  0.0000000000000E+00  2.5475764831029E-09 -5.7145350951249E-09
     2  1.0000000000000E-02  9.0504837165005E-02 -2.6386377926914E-02
     3  2.0000000000000E-02  1.8076386847105E-01 -5.2578094635795E-02
     4  3.0000000000000E-02  2.7053146755801E-01 -7.8380175006134E-02
     5  4.0000000000000E-02  3.5956238791482E-01 -1.0359706245738E-01
     6  5.0000000000000E-02  4.4761200425041E-01 -1.2803244254868E-01
     7  6.0000000000000E-02  5.3443661370963E-01 -1.5148919952564E-01
     8  7.0000000000000E-02  6.1979381378514E-01 -1.7376954317383E-01
     9  8.0000000000000E-02  7.0344297122881E-01 -1.9467533762468E-01
    10  9.0000000000000E-02  7.8514579321274E-01 -2.1400865691813E-01
    11  1.0000000000000E-01  8.6466700851245E-01 -2.3157258434905E-01
    12  1.1000000000000E-01  9.4177516267819E-01 -2.4717226412767E-01
    13  1.2000000000000E-01  1.0162435271272E+00 -2.6061620490534E-01
    14  1.3000000000000E-01  1.0878511179420E+00 -2.7171782551207E-01
    15  1.4000000000000E-01  1.1563838160086E+00 -2.8029722407994E-01
    16  1.5000000000000E-01  1.2216355760956E+00 -2.8618314285475E-01
    17  1.6000000000000E-01  1.2834097086640E+00 -2.8921509268344E-01
    18  1.7000000000000E-01  1.3415202147299E+00 -2.8924559365479E-01
    19  1.8000000000000E-01  1.3957931510667E+00 -2.8614248189613E-01
    20  1.9000000000000E-01  1.4460680005293E+00 -2.7979122729085E-01
    21  2.0000000000000E-01  1.4921990203881E+00 -2.7009720305642E-01
    22  2.1000000000000E-01  1.5340565403300E+00 -2.5698784584914E-01
    23  2.2000000000000E-01  1.5715281812791E+00 -2.4041464443938E-01
    24  2.3000000000000E-01  1.6045199664263E+00 -2.2035489608767E-01
    25  2.4000000000000E-01  1.6329572968537E+00 -1.9681317256212E-01
    26  2.5000000000000E-01  1.6567857658826E+00 -1.6982244223889E-01
    27  2.6000000000000E-01  1.6759717887422E+00 -1.3944480084275E-01
    28  2.7000000000000E-01  1.6905030272868E+00 -1.0577177099645E-01
    29  2.8000000000000E-01  1.7003885932432E+00 -6.8924139690832E-02
    30  2.9000000000000E-01  1.7056590177321E+00 -2.9051312864789E-02
    31  3.0000000000000E-01  1.7063659795184E+00  1.3669822737028E-02
    32  3.1000000000000E-01  1.7025817894592E+00  5.9036528643357E-02
    33  3.2000000000000E-01  1.6943986338507E+00  1.0682232091267E-01
    34  3.3000000000000E-01  1.6819275846733E+00  1.5677952777295E-01
    35  3.4000000000000E-01  1.6652973899815E+00  2.0864226106625E-01
    36  3.5000000000000E-01  1.6446530627513E+00  2.6212975268846E-01
    37  3.6000000000000E-01  1.6201542912453E+00  3.1694999683713E-01
    38  3.7000000000000E-01  1.5919736982660E+00  3.7280362964319E-01
    39  3.8000000000000E-01  1.5602949804299E+00  4.2938796992636E-01
    40  3.9000000000000E-01  1.5253109616955E+00  4.8640113861383E-01
    41  4.0000000000000E-01  1.4872215977360E+00  5.4354616999724E-01
    42  4.1000000000000E-01  1.4462319692861E+00  6.0053502562935E-01
    43  4.2000000000000E-01  1.4025503032565E+00  6.5709242139362E-01
    44  4.3000000000000E-01  1.3563860601701E+00  7.1295938017889E-01
    45  4.4000000000000E-01  1.3079481253106E+00  7.6789642666923E-01
    46  4.5000000000000E-01  1.2574431389024E+00  8.2168634697409E-01
    47  4.6000000000000E-01  1.2050739976943E+00  8.7413644408092E-01
    48  4.7000000000000E-01  1.1510385565390E+00  9.2508023026628E-01
    49  4.8000000000000E-01  1.0955285540388E+00  9.7437850945344E-01
    50  4.9000000000000E-01  1.0387287811450E+00  1.0219198158164E+00
    51  5.0000000000000E-01  9.8081650586888E-01  1.0676201894158E+00
    52  5.1000000000000E-01  9.2196116111936E-01  1.1114222849991E+00
    53  5.2000000000000E-01  8.6232429625580E-01  1.1532938259524E+00
    54  5.3000000000000E-01  8.0205978638919E-01  1.1932254314016E+00
    55  5.4000000000000E-01  7.4131428693480E-01  1.2312278602293E+00
    56  5.5000000000000E-01  6.8022791456852E-01  1.2673287309445E+00
    57  5.6000000000000E-01  6.1893512972733E-01  1.3015687905124E+00
    58  5.7000000000000E-01  5.5756579026914E-01  1.3339978180850E+00
    59  5.8000000000000E-01  4.9624634101375E-01  1.3646702607121E+00
    60  5.9000000000000E-01  4.3510109975348E-01  1.3936407072648E+00
    61  6.0000000000000E-01  3.7425359706424E-01  1.4209593136980E+00
    62  6.1000000000000E-01  3.1382792496336E-01  1.4466672971879E+00
    63  6.2000000000000E-01  2.5395004822293E-01  1.4707926184578E+00
    64  6.3000000000000E-01  1.9474903201079E-01  1.4933459706139E+00
    65  6.4000000000000E-01  1.3635814052360E-01  1.5143171890315E+00
    66  6.5000000000000E-01  7.8915763397879E-02  1.5336721902566E+00
    67  6.6000000000000E-01  2.2566129913092E-02  1.5513505386093E+00
    68  6.7000000000000E-01 -3.2540224715970E-02  1.5672637273357E+00
    69  6.8000000000000E-01 -8.6246271397752E-02  1.5812942469609E+00
    70  6.9000000000000E-01 -1.3838860187378E-01  1.5932954972119E+00
    71  7.0000000000000E-01 -1.8879786348312E-01  1.6030925808281E+00
    72  7.1000000000000E-01 -2.3729952387644E-01  1.6104839981187E+00
    73  7.2000000000000E-01 -2.8371496761332E-01  1.6152442406793E+00
    74  7.3000000000000E-01 -3.2786291833590E-01  1.6171272616669E+00
    75  7.4000000000000E-01 -3.6956117187676E-01  1.6158707789311E+00
    76  7.5000000000000E-01 -4.0862861741734E-01  1.6112013465682E+00
    77  7.6000000000000E-01 -4.4488751585851E-01  1.6028401105902E+00
    78  7.7000000000000E-01 -4.7816599708332E-01  1.5905091458400E+00
    79  7.8000000000000E-01 -5.0830073096785E-01  1.5739382544903E+00
    80  7.9000000000000E-01 -5.3513972099874E-01  1.5528720918504E+00
    81  8.0000000000000E-01 -5.5854516434059E-01  1.5270774731484E+00
    82  8.1000000000000E-01 -5.7839631830062E-01  1.4963507057884E+00
    83  8.2000000000000E-01 -5.9459231047475E-01  1.4605247855658E+00
    84  8.3000000000000E-01 -6.0705482851729E-01  1.4194762926772E+00
    85  8.4000000000000E-01 -6.1573062551733E-01  1.3731318242046E+00
    86  8.5000000000000E-01 -6.2059377841857E-01  1.3214738041657E+00
    87  8.6000000000000E-01 -6.2164763978731E-01  1.2645455201747E+00
    88  8.7000000000000E-01 -6.1892642748385E-01  1.2024552471623E+00
    89  8.8000000000000E-01 -6.1249640236292E-01  1.1353793332922E+00
    90  8.9000000000000E-01 -6.0245659092806E-01  1.0635641409327E+00
    91  9.0000000000000E-01 -5.8893901776913E-01  9.8732675598204E-01
    92  9.1000000000000E-01 -5.7210842147628E-01  9.0705440162593E-01
    93  9.2000000000000E-01 -5.5216143737345E-01  8.2320251728003E-01
    94  9.3000000000000E-01 -5.2932524065955E-01  7.3629148955678E-01
    95  9.4000000000000E-01 -5.0385565417723E-01  6.4690204906258E-01
    96  9.5000000000000E-01 -4.7603473582684E-01  5.5566937412514E-01
    97  9.6000000000000E-01 -4.4616787137827E-01  4.6327596959536E-01
    98  9.7000000000000E-01 -4.1458040887798E-01  3.7044341509105E-01
    99  9.8000000000000E-01 -3.8161388077211E-01  2.7792310187911E-01
   100  9.9000000000000E-01 -3.4762186905068E-01  1.8648610047979E-01
   101  1.0000000000000E+00 -3.1296557695158E-01  9.6912321501602E-02
   102  1.0100000000000E+00 -2.7800917786029E-01  9.9791497164864E-03
   103  1.0200000000000E+00 -2.4311501782872E-01 -7.3550254465127E-02
   104  1.0300000000000E+00 -2.0863875246880E-01 -1.5293878151441E-01
   105  1.0400000000000E+00 -1.7492450174416E-01 -2.2748711622091E-01
   106  1.0500000000000E+00 -1.4230010729648E-01 -2.9654518468091E-01
   107  1.0600000000000E+00 -1.1107257635497E-01 -3.5952309347755E-01
   108  1.0700000000000E+00 -8.1523793976776E-02 -4.1590135601102E-01
   109  1.0800000000000E+00 -5.3906581361136E-02 -4.6524021153547E-01
   110  1.0900000000000E+00 -2.8441172359452E-02 -5.0718785710467E-01
   111  1.1000000000000E+00 -5.3121731060864E-03 -5.4148743121715E-01
   112  1.1100000000000E+00  1.5333938877157E-02 -5.6798260996285E-01
   113  1.1200000000000E+00  3.3390729627883E-02 -5.8662170173295E-01
   114  1.1300000000000E+00  4.8793102171316E-02 -5.9746015435095E-01
   115  1.1400000000000E+00  6.1517944672818E-02 -6.0066141851492E-01
   116  1.1500000000000E+00  7.1584121958192E-02 -5.9649614289729E-01
   117  1.1600000000000E+00  7.9051811881934E-02 -5.8533970874750E-01
   118  1.1700000000000E+00  8.4021200929288E-02 -5.6766814445913E-01
   119  1.1800000000000E+00  8.6630566290643E-02 -5.4405249299014E-01
   120  1.1900000000000E+00  8.7053784889229E-02 -5.1515173898356E-01
   121  1.2000000000000E+00  8.5497310578257E-02 -4.8170439648985E-01
   122  1.2100000000000E+00  8.2196621725671E-02 -4.4451872287592E-01
   123  1.2200000000000E+00  7.7409948441190E-02 -4.0445447670308E-01
   124  1.2300000000000E+00  7.1410025524813E-02 -3.6239891071117E-01
   125  1.2400000000000E+00  6.4478294083746E-02 -3.1925120393245E-01
   126  1.2500000000000E+00  5.6899545245209E-02 -2.7590849361317E-01
   127  1.2600000000000E+00  4.8956507232523E-02 -2.3325179481213E-01
   128  1.2700000000000E+00  4.0924477482688E-02 -1.9213207385141E-01
   129  1.2800000000000E+00  3.3066104143044E-02 -1.5335670661579E-01
   130  1.2900000000000E+00  2.5626157416750E-02 -1.1767666786124E-01
   131  1.3000000000000E+00  1.8824155145878E-02 -8.5773551127035E-02
   132  1.3100000000000E+00  1.2856082182493E-02 -5.8248225455884E-02
   133  1.3200000000000E+00  7.8895142959915E-03 -3.5614055723239E-02
   134  1.3300000000000E+00  4.0586531127015E-03 -1.8288700243501E-02
   135  1.3400000000000E+00  1.4592782896706E-03 -6.5763370014378E-03
   136  1.3500000000000E+00  1.7518427301837E-04 -7.9106524368277E-04
   137  1.3600000000000E+00 -1.6316959306197E-05  7.3785024025943E-05
   138  1.3700000000000E+00  2.5308283888218E-06 -1.1429724021807E-05
   139  1.38  0.  0.
   140  1.39  0.  0.
   141  1.40  0.  0.
   142  1.41  0.  0.
   143  1.42  0.  0.
   144  1.43  0.  0.
   145  1.44  0.  0.
   146  1.45  0.  0.
   147  1.46  0.  0.
   148  1.47  0.  0.
   149  1.48  0.  0.
   150  1.49  0.  0.
   151  1.50  0.  0.
   152  1.51  0.  0.
   153  1.52  0.  0.
   154  1.53  0.  0.
   155  1.54  0.  0.
   156  1.55  0.  0.
   157  1.56  0.  0.
   158  1.57  0.  0.
   159  1.58  0.  0.
   160  1.59  0.  0.
   161  1.60  0.  0.
   162  1.61  0.  0.
   163  1.62  0.  0.
   164  1.63  0.  0.
   165  1.64  0.  0.
   166  1.65  0.  0.
   167  1.66  0.  0.
   168  1.67  0.  0.
   169  1.68  0.  0.
   170  1.69  0.  0.
   171  1.70  0.  0.
   172  1.71  0.  0.
   173  1.72  0.  0.
   174  1.73  0.  0.
   175  1.74  0.  0.
   176  1.75  0.  0.
   177  1.76  0.  0.
   178  1.77  0.  0.
   179  1.78  0.  0.
   180  1.79  0.  0.
   181  1.80  0.  0.
   182  1.81  0.  0.
   183  1.82  0.  0.
   184  1.83  0.  0.
   185  1.84  0.  0.
   186  1.85  0.  0.
   187  1.86  0.  0.
   188  1.87  0.  0.
   189  1.88  0.  0.
   190  1.89  0.  0.
   191  1.90  0.  0.
   192  1.91  0.  0.
   193  1.92  0.  0.
   194  1.93  0.  0.
   195  1.94  0.  0.
   196  1.95  0.  0.
   197  1.96  0.  0.
   198  1.97  0.  0.
   199  1.98  0.  0.
   200  1.99  0.  0.
   201  2.00  0.  0.
   202  2.01  0.  0.
   203  2.02  0.  0.
   204  2.03  0.  0.
   205  2.04  0.  0.
   206  2.05  0.  0.
   207  2.06  0.  0.
   208  2.07  0.  0.
   209  2.08  0.  0.
   210  2.09  0.  0.
   211  2.10  0.  0.
   212  2.11  0.  0.
   213  2.12  0.  0.
   214  2.13  0.  0.
   215  2.14  0.  0.
   216  2.15  0.  0.
   217  2.16  0.  0.
   218  2.17  0.  0.
   219  2.18  0.  0.
   220  2.19  0.  0.
   221  2.20  0.  0.
   222  2.21  0.  0.
   223  2.22  0.  0.
   224  2.23  0.  0.
   225  2.24  0.  0.
   226  2.25  0.  0.
   227  2.26  0.  0.
   228  2.27  0.  0.
   229  2.28  0.  0.
   230  2.29  0.  0.
   231  2.30  0.  0.
   232  2.31  0.  0.
   233  2.32  0.  0.
   234  2.33  0.  0.
   235  2.34  0.  0.
   236  2.35  0.  0.
   237  2.36  0.  0.
   238  2.37  0.  0.
   239  2.38  0.  0.
   240  2.39  0.  0.
   241  2.40  0.  0.
   242  2.41  0.  0.
   243  2.42  0.  0.
   244  2.43  0.  0.
   245  2.44  0.  0.
   246  2.45  0.  0.
   247  2.46  0.  0.
   248  2.47  0.  0.
   249  2.48  0.  0.
   250  2.49  0.  0.
   251  2.50  0.  0.
   252  2.51  0.  0.
   253  2.52  0.  0.
   254  2.53  0.  0.
   255  2.54  0.  0.
   256  2.55  0.  0.
   257  2.56  0.  0.
   258  2.57  0.  0.
   259  2.58  0.  0.
   260  2.59  0.  0.
   261  2.60  0.  0.
   262  2.61  0.  0.
   263  2.62  0.  0.
   264  2.63  0.  0.
   265  2.64  0.  0.
   266  2.65  0.  0.
   267  2.66  0.  0.
   268  2.67  0.  0.
   269  2.68  0.  0.
   270  2.69  0.  0.
   271  2.70  0.  0.
   272  2.71  0.  0.
   273  2.72  0.  0.
   274  2.73  0.  0.
   275  2.74  0.  0.
   276  2.75  0.  0.
   277  2.76  0.  0.
   278  2.77  0.  0.
   279  2.78  0.  0.
   280  2.79  0.  0.
   281  2.80  0.  0.
   282  2.81  0.  0.
   283  2.82  0.  0.
   284  2.83  0.  0.
   285  2.84  0.  0.
   286  2.85  0.  0.
   287  2.86  0.  0.
   288  2.87  0.  0.
   289  2.88  0.  0.
   290  2.89  0.  0.
   291  2.90  0.  0.
   292  2.91  0.  0.
   293  2.92  0.  0.
   294  2.93  0.  0.
   295  2.94  0.  0.
   296  2.95  0.  0.
   297  2.96  0.  0.
   298  2.97  0.  0.
   299  2.98  0.  0.
   300  2.99  0.  0.
   301  3.00  0.  0.
   302  3.01  0.  0.
   303  3.02  0.  0.
   304  3.03  0.  0.
   305  3.04  0.  0.
   306  3.05  0.  0.
   307  3.06  0.  0.
   308  3.07  0.  0.
   309  3.08  0.  0.
   310  3.09  0.  0.
   311  3.10  0.  0.
   312  3.11  0.  0.
   313  3.12  0.  0.
   314  3.13  0.  0.
   315  3.14  0.  0.
   316  3.15  0.  0.
   317  3.16  0.  0.
   318  3.17  0.  0.
   319  3.18  0.  0.
   320  3.19  0.  0.
   321  3.20  0.  0.
   322  3.21  0.  0.
   323  3.22  0.  0.
   324  3.23  0.  0.
   325  3.24  0.  0.
   326  3.25  0.  0.
   327  3.26  0.  0.
   328  3.27  0.  0.
   329  3.28  0.  0.
   330  3.29  0.  0.
   331  3.30  0.  0.
   332  3.31  0.  0.
   333  3.32  0.  0.
   334  3.33  0.  0.
   335  3.34  0.  0.
   336  3.35  0.  0.
   337  3.36  0.  0.
   338  3.37  0.  0.
   339  3.38  0.  0.
   340  3.39  0.  0.
   341  3.40  0.  0.
   342  3.41  0.  0.
   343  3.42  0.  0.
   344  3.43  0.  0.
   345  3.44  0.  0.
   346  3.45  0.  0.
   347  3.46  0.  0.
   348  3.47  0.  0.
   349  3.48  0.  0.
   350  3.49  0.  0.
   351  3.50  0.  0.
   352  3.51  0.  0.
   353  3.52  0.  0.
   354  3.53  0.  0.
   355  3.54  0.  0.
   356  3.55  0.  0.
   357  3.56  0.  0.
   358  3.57  0.  0.
   359  3.58  0.  0.
   360  3.59  0.  0.
   361  3.60  0.  0.
   362  3.61  0.  0.
   363  3.62  0.  0.
   364  3.63  0.  0.
   365  3.64  0.  0.
   366  3.65  0.  0.
   367  3.66  0.  0.
   368  3.67  0.  0.
   369  3.68  0.  0.
   370  3.69  0.  0.
   371  3.70  0.  0.
   372  3.71  0.  0.
   373  3.72  0.  0.
   374  3.73  0.  0.
   375  3.74  0.  0.
   376  3.75  0.  0.
   377  3.76  0.  0.
   378  3.77  0.  0.
   379  3.78  0.  0.
   380  3.79  0.  0.
   381  3.80  0.  0.
   382  3.81  0.  0.
   383  3.82  0.  0.
   384  3.83  0.  0.
   385  3.84  0.  0.
   386  3.85  0.  0.
   387  3.86  0.  0.
   388  3.87  0.  0.
   389  3.88  0.  0.
   390  3.89  0.  0.
   391  3.90  0.  0.
   392  3.91  0.  0.
   393  3.92  0.  0.
   394  3.93  0.  0.
   395  3.94  0.  0.
   396  3.95  0.  0.
   397  3.96  0.  0.
   398  3.97  0.  0.
   399  3.98  0.  0.
   400  3.99  0.  0.
   401  4.00  0.  0.
   402  4.01  0.  0.
   403  4.02  0.  0.
   404  4.03  0.  0.
   405  4.04  0.  0.
   406  4.05  0.  0.
   407  4.06  0.  0.
   408  4.07  0.  0.
   409  4.08  0.  0.
   410  4.09  0.  0.
   411  4.10  0.  0.
   412  4.11  0.  0.
   413  4.12  0.  0.
   414  4.13  0.  0.
   415  4.14  0.  0.
   416  4.15  0.  0.
   417  4.16  0.  0.
   418  4.17  0.  0.
   419  4.18  0.  0.
   420  4.19  0.  0.
   421  4.20  0.  0.
   422  4.21  0.  0.
   423  4.22  0.  0.
   424  4.23  0.  0.
   425  4.24  0.  0.
   426  4.25  0.  0.
   427  4.26  0.  0.
   428  4.27  0.  0.
   429  4.28  0.  0.
   430  4.29  0.  0.
   431  4.30  0.  0.
   432  4.31  0.  0.
   433  4.32  0.  0.
   434  4.33  0.  0.
   435  4.34  0.  0.
   436  4.35  0.  0.
   437  4.36  0.  0.
   438  4.37  0.  0.
   439  4.38  0.  0.
   440  4.39  0.  0.
   441  4.40  0.  0.
   442  4.41  0.  0.
   443  4.42  0.  0.
   444  4.43  0.  0.
   445  4.44  0.  0.
   446  4.45  0.  0.
   447  4.46  0.  0.
   448  4.47  0.  0.
   449  4.48  0.  0.
   450  4.49  0.  0.
   451  4.50  0.  0.
   452  4.51  0.  0.
   453  4.52  0.  0.
   454  4.53  0.  0.
   455  4.54  0.  0.
   456  4.55  0.  0.
   457  4.56  0.  0.
   458  4.57  0.  0.
   459  4.58  0.  0.
   460  4.59  0.  0.
   461  4.60  0.  0.
   462  4.61  0.  0.
   463  4.62  0.  0.
   464  4.63  0.  0.
   465  4.64  0.  0.
   466  4.65  0.  0.
   467  4.66  0.  0.
   468  4.67  0.  0.
   469  4.68  0.  0.
   470  4.69  0.  0.
   471  4.70  0.  0.
   472  4.71  0.  0.
   473  4.72  0.  0.
   474  4.73  0.  0.
   475  4.74  0.  0.
   476  4.75  0.  0.
   477  4.76  0.  0.
   478  4.77  0.  0.
   479  4.78  0.  0.
   480  4.79  0.  0.
   481  4.80  0.  0.
   482  4.81  0.  0.
   483  4.82  0.  0.
   484  4.83  0.  0.
   485  4.84  0.  0.
   486  4.85  0.  0.
   487  4.86  0.  0.
   488  4.87  0.  0.
   489  4.88  0.  0.
   490  4.89  0.  0.
   491  4.90  0.  0.
   492  4.91  0.  0.
   493  4.92  0.  0.
   494  4.93  0.  0.
   495  4.94  0.  0.
   496  4.95  0.  0.
   497  4.96  0.  0.
   498  4.97  0.  0.
   499  4.98  0.  0.
   500  4.99  0.  0.
   501  5.00  0.  0.
   502  5.01  0.  0.
   503  5.02  0.  0.
   504  5.03  0.  0.
   505  5.04  0.  0.
   506  5.05  0.  0.
   507  5.06  0.  0.
   508  5.07  0.  0.
   509  5.08  0.  0.
   510  5.09  0.  0.
   511  5.10  0.  0.
   512  5.11  0.  0.
   513  5.12  0.  0.
   514  5.13  0.  0.
   515  5.14  0.  0.
   516  5.15  0.  0.
   517  5.16  0.  0.
   518  5.17  0.  0.
   519  5.18  0.  0.
   520  5.19  0.  0.
   521  5.20  0.  0.
   522  5.21  0.  0.
   523  5.22  0.  0.
   524  5.23  0.  0.
   525  5.24  0.  0.
   526  5.25  0.  0.
   527  5.26  0.  0.
   528  5.27  0.  0.
   529  5.28  0.  0.
   530  5.29  0.  0.
   531  5.30  0.  0.
   532  5.31  0.  0.
   533  5.32  0.  0.
   534  5.33  0.  0.
   535  5.34  0.  0.
   536  5.35  0.  0.
   537  5.36  0.  0.
   538  5.37  0.  0.
   539  5.38  0.  0.
   540  5.39  0.  0.
   541  5.40  0.  0.
   542  5.41  0.  0.
   543  5.42  0.  0.
   544  5.43  0.  0.
   545  5.44  0.  0.
   546  5.45  0.  0.
   547  5.46  0.  0.
   548  5.47  0.  0.
   549  5.48  0.  0.
   550  5.49  0.  0.
   551  5.50  0.  0.
   552  5.51  0.  0.
   553  5.52  0.  0.
   554  5.53  0.  0.
   555  5.54  0.  0.
   556  5.55  0.  0.
   557  5.56  0.  0.
   558  5.57  0.  0.
   559  5.58  0.  0.
   560  5.59  0.  0.
   561  5.60  0.  0.
   562  5.61  0.  0.
   563  5.62  0.  0.
   564  5.63  0.  0.
   565  5.64  0.  0.
   566  5.65  0.  0.
   567  5.66  0.  0.
   568  5.67  0.  0.
   569  5.68  0.  0.
   570  5.69  0.  0.
   571  5.70  0.  0.
   572  5.71  0.  0.
   573  5.72  0.  0.
   574  5.73  0.  0.
   575  5.74  0.  0.
   576  5.75  0.  0.
   577  5.76  0.  0.
   578  5.77  0.  0.
   579  5.78  0.  0.
   580  5.79  0.  0.
   581  5.80  0.  0.
   582  5.81  0.  0.
   583  5.82  0.  0.
   584  5.83  0.  0.
   585  5.84  0.  0.
   586  5.85  0.  0.
   587  5.86  0.  0.
   588  5.87  0.  0.
   589  5.88  0.  0.
   590  5.89  0.  0.
   591  5.90  0.  0.
   592  5.91  0.  0.
   593  5.92  0.  0.
   594  5.93  0.  0.
   595  5.94  0.  0.
   596  5.95  0.  0.
   597  5.96  0.  0.
   598  5.97  0.  0.
   599  5.98  0.  0.
   600  5.99  0.  0.
   1                        -4.7285652312132E+00 -1.1178868279502E+00
     1  0.0000000000000E+00 -2.9105706733645E-09  7.0458108514249E-09
     2  1.0000000000000E-02  2.0615940936138E-03 -8.5651866060738E-04
     3  2.0000000000000E-02  8.2384158193932E-03 -3.4226521485205E-03
     4  3.0000000000000E-02  1.8506557051383E-02 -7.6880172038943E-03
     5  4.0000000000000E-02  3.2826084575766E-02 -1.3634926944971E-02
     6  5.0000000000000E-02  5.1140917060237E-02 -2.1237834244438E-02
     7  6.0000000000000E-02  7.3378665572815E-02 -3.0462583115368E-02
     8  7.0000000000000E-02  9.9450449975255E-02 -4.1265497748757E-02
     9  8.0000000000000E-02  1.2925070642683E-01 -5.3592345890511E-02
    10  9.0000000000000E-02  1.6265700370751E-01 -6.7377219273403E-02
    11  1.0000000000000E-01  1.9952988803169E-01 -8.2541378656368E-02
    12  1.1000000000000E-01  2.3971277741249E-01 -9.8992114527327E-02
    13  1.2000000000000E-01  2.8303192740648E-01 -1.1662167658701E-01
    14  1.3000000000000E-01  3.2929649018674E-01 -1.3530632567975E-01
    15  1.4000000000000E-01  3.7829868834503E-01 -1.5490556083691E-01
    16  1.5000000000000E-01  4.2981412361300E-01 -1.7526157155847E-01
    17  1.6000000000000E-01  4.8360223883724E-01 -1.9619896142253E-01
    18  1.7000000000000E-01  5.3940694907955E-01 -2.1752478366641E-01
    19  1.8000000000000E-01  5.9695745469420E-01 -2.3902892264955E-01
    20  1.9000000000000E-01  6.5596924572406E-01 -2.6048484724168E-01
    21  2.0000000000000E-01  7.1614530303776E-01 -2.8165075336807E-01
    22  2.1000000000000E-01  7.7717749739135E-01 -3.0227110339906E-01
    23  2.2000000000000E-01  8.3874818314031E-01 -3.2207856002742E-01
    24  2.3000000000000E-01  9.0053197875869E-01 -3.4079630198384E-01
    25  2.4000000000000E-01  9.6219772175322E-01 -3.5814069865675E-01
    26  2.5000000000000E-01  1.0234105811035E+00 -3.7382431066989E-01
    27  2.6000000000000E-01  1.0838343061282E+00 -3.8755917398770E-01
    28  2.7000000000000E-01  1.1431335867777E+00 -3.9906031641378E-01
    29  2.8000000000000E-01  1.2009764968886E+00 -4.0804944765498E-01
    30  2.9000000000000E-01  1.2570369889985E+00 -4.1425875765322E-01
    31  3.0000000000000E-01  1.3109974069856E+00 -4.1743475282374E-01
    32  3.1000000000000E-01  1.3625509811447E+00 -4.1734205633377E-01
    33  3.2000000000000E-01  1.4114042693807E+00 -4.1376709672560E-01
    34  3.3000000000000E-01  1.4572795080358E+00 -4.0652160910900E-01
    35  3.4000000000000E-01  1.4999168364816E+00 -3.9544587485510E-01
    36  3.5000000000000E-01  1.5390763610057E+00 -3.8041162920937E-01
    37  3.6000000000000E-01  1.5745400256776E+00 -3.6132457145289E-01
    38  3.7000000000000E-01  1.6061132607669E+00 -3.3812641908646E-01
    39  3.8000000000000E-01  1.6336263828375E+00 -3.1079645585436E-01
    40  3.9000000000000E-01  1.6569357247995E+00 -2.7935253309351E-01
    41  4.0000000000000E-01  1.6759244788665E+00 -2.4385149467967E-01
    42  4.1000000000000E-01  1.6905032404516E+00 -2.0438900751005E-01
    43  4.2000000000000E-01  1.7006102464233E+00 -1.6109879174879E-01
    44  4.3000000000000E-01  1.7062113067187E+00 -1.1415125768870E-01
    45  4.4000000000000E-01  1.7072994339524E+00 -6.3751568756568E-02
    46  4.5000000000000E-01  1.7038941812329E+00 -1.0137162613830E-02
    47  4.6000000000000E-01  1.6960407037885E+00  4.6425225816944E-02
    48  4.7000000000000E-01  1.6838085650739E+00  1.0564298452298E-01
    49  4.8000000000000E-01  1.6672903126741E+00  1.6720142294944E-01
    50  4.9000000000000E-01  1.6465998534255E+00  2.3076787551301E-01
    51  5.0000000000000E-01  1.6218706606401E+00  2.9599602964893E-01
    52  5.1000000000000E-01  1.5932538490703E+00  3.6253039269656E-01
    53  5.2000000000000E-01  1.5609161552126E+00  4.3001080856811E-01
    54  5.3000000000000E-01  1.5250378616778E+00  4.9807693379280E-01
    55  5.4000000000000E-01  1.4858107046182E+00  5.6637258323906E-01
    56  5.5000000000000E-01  1.4434358025895E+00  6.3454985860186E-01
    57  5.6000000000000E-01  1.3981216437483E+00  7.0227297755933E-01
    58  5.7000000000000E-01  1.3500821659749E+00  7.6922172826596E-01
    59  5.8000000000000E-01  1.2995349614163E+00  8.3509448242149E-01
    60  5.9000000000000E-01  1.2466996331362E+00  8.9961071035668E-01
    61  6.0000000000000E-01  1.1917963271217E+00  9.6251295318733E-01
    62  6.1000000000000E-01  1.1350444579387E+00  1.0235682198500E+00
    63  6.2000000000000E-01  1.0766616409586E+00  1.0825687904573E+00
    64  6.3000000000000E-01  1.0168628384285E+00  1.1393324215875E+00
    65  6.4000000000000E-01  9.5585972086202E-01  1.1937019635214E+00
    66  6.5000000000000E-01  8.9386023941955E-01  1.2455444137189E+00
    67  6.6000000000000E-01  8.3106839927853E-01  1.2947494446510E+00
    68  6.7000000000000E-01  7.6768421859066E-01  1.3412274571311E+00
    69  6.8000000000000E-01  7.0390385263101E-01  1.3849072222021E+00
    70  6.9000000000000E-01  6.3991985827983E-01  1.4257331851398E+00
    71  7.0000000000000E-01  5.7592157016118E-01  1.4636625139463E+00
    72  7.1000000000000E-01  5.1209555669114E-01  1.4986619816108E+00
    73  7.2000000000000E-01  4.4862612204543E-01  1.5307047762024E+00
    74  7.3000000000000E-01  3.8569581870746E-01  1.5597673353989E+00
    75  7.4000000000000E-01  3.2348593484506E-01  1.5858263022389E+00
    76  7.5000000000000E-01  2.6217692131035E-01  1.6088556966881E+00
    77  7.6000000000000E-01  2.0194872456081E-01  1.6288243930314E+00
    78  7.7000000000000E-01  1.4298099423598E-01  1.6456939862320E+00
    79  7.8000000000000E-01  8.5453137447063E-02  1.6594171213468E+00
    80  7.9000000000000E-01  2.9544195977069E-02  1.6699363490468E+00
    81  8.0000000000000E-01 -2.4567472543465E-02  1.6771835574871E+00
    82  8.1000000000000E-01 -7.6704722932796E-02  1.6810800164747E+00
    83  8.2000000000000E-01 -1.2669236769285E-01  1.6815370544219E+00
    84  8.3000000000000E-01 -1.7435814031201E-01  1.6784573722773E+00
    85  8.4000000000000E-01 -2.1953387122274E-01  1.6717369818843E+00
    86  8.5000000000000E-01 -2.6205686440851E-01  1.6612677394118E+00
    87  8.6000000000000E-01 -3.0177145617527E-01  1.6469404280235E+00
    88  8.7000000000000E-01 -3.3853073139496E-01  1.6286483282174E+00
    89  8.8000000000000E-01 -3.7219836675200E-01  1.6062911996382E+00
    90  8.9000000000000E-01 -4.0265056532720E-01  1.5797795850278E+00
    91  9.0000000000000E-01 -4.2977804237625E-01  1.5490393356685E+00
    92  9.1000000000000E-01 -4.5348801852724E-01  1.5140162484828E+00
    93  9.2000000000000E-01 -4.7370617394039E-01  1.4746806981621E+00
    94  9.3000000000000E-01 -4.9037851533096E-01  1.4310321434931E+00
    95  9.4000000000000E-01 -5.0347310721693E-01  1.3831033856047E+00
    96  9.5000000000000E-01 -5.1298161935846E-01  1.3309644572540E+00
    97  9.6000000000000E-01 -5.1892064411859E-01  1.2747260265419E+00
    98  9.7000000000000E-01 -5.2133274038455E-01  1.2145422055600E+00
    99  9.8000000000000E-01 -5.2028716470700E-01  1.1506126643238E+00
   100  9.9000000000000E-01 -5.1588025537633E-01  1.0831839627762E+00
   101  1.0000000000000E+00 -5.0823544117060E-01  1.0125500284248E+00
   102  1.0100000000000E+00 -4.9750285336690E-01  9.3905172402670E-01
   103  1.0200000000000E+00 -4.8385852717446E-01  8.6307546832635E-01
   104  1.0300000000000E+00 -4.6750318686686E-01  7.8505089279459E-01
   105  1.0400000000000E+00 -4.4866061739529E-01  7.0544753820114E-01
   106  1.0500000000000E+00 -4.2757563398641E-01  6.2477061625881E-01
   107  1.0600000000000E+00 -4.0451166995571E-01  5.4355588298679E-01
   108  1.0700000000000E+00 -3.7974801153513E-01  4.6236369144580E-01
   109  1.0800000000000E+00 -3.5357671671893E-01  3.8177231159981E-01
   110  1.0900000000000E+00 -3.2629926277425E-01  3.0237062376781E-01
   111  1.1000000000000E+00 -2.9822297400630E-01  2.2475030910940E-01
   112  1.1100000000000E+00 -2.6965728738916E-01  1.4949767529386E-01
   113  1.1200000000000E+00 -2.4090991868593E-01  7.7185267725560E-02
   114  1.1300000000000E+00 -2.1228299550527E-01  8.3634259941679E-03
   115  1.1400000000000E+00 -1.8406922631093E-01 -5.6448048565875E-02
   116  1.1500000000000E+00 -1.5654817561182E-01 -1.1676794544297E-01
   117  1.1600000000000E+00 -1.2998271537491E-01 -1.7216124942463E-01
   118  1.1700000000000E+00 -1.0461572110291E-01 -2.2224613277815E-01
   119  1.1800000000000E+00 -8.0667077988668E-02 -2.6670017844669E-01
   120  1.1900000000000E+00 -5.8331058521853E-02 -3.0526568717272E-01
   121  1.2000000000000E+00 -3.7774123042557E-02 -3.3775395054586E-01
   122  1.2100000000000E+00 -1.9133169299779E-02 -3.6404845711657E-01
   123  1.2200000000000E+00 -2.5134229940828E-03 -3.8410998690965E-01
   124  1.2300000000000E+00  1.2013764281251E-02 -3.9798246946286E-01
   125  1.2400000000000E+00  2.4411563609187E-02 -4.0579368619825E-01
   126  1.2500000000000E+00  3.4677524535286E-02 -4.0775377078739E-01
   127  1.2600000000000E+00  4.2842858112157E-02 -4.0415233105911E-01
   128  1.2700000000000E+00  4.8971154915848E-02 -3.9535421269174E-01
   129  1.2800000000000E+00  5.3156558671408E-02 -3.8179395918875E-01
   130  1.2900000000000E+00  5.5521426042943E-02 -3.6396904632283E-01
   131  1.3000000000000E+00  5.6213513132148E-02 -3.4243199369799E-01
   132  1.3100000000000E+00  5.5402738442462E-02 -3.1778147854556E-01
   133  1.3200000000000E+00  5.3277580386351E-02 -2.9065259713719E-01
   134  1.3300000000000E+00  5.0041174693732E-02 -2.6170643690689E-01
   135  1.3400000000000E+00  4.5907183168605E-02 -2.3161913715195E-01
   136  1.3500000000000E+00  4.1095509957892E-02 -2.0107062758969E-01
   137  1.3600000000000E+00  3.5827943331787E-02 -1.7073323911276E-01
   138  1.3700000000000E+00  3.0323817329929E-02 -1.4126041364069E-01
   139  1.3800000000000E+00  2.4795718716888E-02 -1.1327560575115E-01
   140  1.3900000000000E+00  1.9446858902000E-02 -8.7364582531772E-02
   141  1.4000000000000E+00  1.4467474097136E-02 -6.4066113480566E-02
   142  1.4100000000000E+00  1.0024663867290E-02 -4.3849862686922E-02
   143  1.4200000000000E+00  6.2643405315569E-03 -2.7118202910098E-02
   144  1.4300000000000E+00  3.3086677321045E-03 -1.4199686168212E-02