O     ONCVPSP-3.3.1  r_core=   1.26150   1.35509   1.35509
      8.0000      6.0000      211215    zatom,zion,pspd
     8   -1012   2     4   600     0    pspcod,pspxc,lmax,lloc,mmax,r2well
  5.99000000  0.00000000  0.00000000    rchrg fchrg qchrg
     2     2     1     0     0    nproj
     1     1           extension_switch
   0                         7.2042459913303D+00  9.8888148787968D-01
     1  0.0000000000000D+00 -7.3028474378845D-09  1.8480899532936D-08
     2  1.0000000000000D-02  1.0681712622514D-01 -4.7939444382150D-02
     3  2.0000000000000D-02  2.1309719142175D-01 -9.5075304075175D-02
     4  3.0000000000000D-02  3.1830912666358D-01 -1.4061738943178D-01
     5  4.0000000000000D-02  4.2193374549584D-01 -1.8380204897585D-01
     6  5.0000000000000D-02  5.2346943275381D-01 -2.2390481355592D-01
     7  6.0000000000000D-02  6.2243753580826D-01 -2.6025230406466D-01
     8  7.0000000000000D-02  7.1838736781726D-01 -2.9223317944512D-01
     9  8.0000000000000D-02  8.1090073986662D-01 -3.1930792018463D-01
    10  9.0000000000000D-02  8.9959594774591D-01 -3.4101726492769D-01
    11  1.0000000000000D-01  9.8413114936519D-01 -3.5698914378882D-01
    12  1.1000000000000D-01  1.0642070802740D+00 -3.6694398092096D-01
    13  1.2000000000000D-01  1.1395690671802D+00 -3.7069827033825D-01
    14  1.3000000000000D-01  1.2100083125483D+00 -3.6816636230343D-01
    15  1.4000000000000D-01  1.2753624370250D+00 -3.5936043212867D-01
    16  1.5000000000000D-01  1.3355152803502D+00 -3.4438863834424D-01
    17  1.6000000000000D-01  1.3903959752746D+00 -3.2345151218361D-01
    18  1.7000000000000D-01  1.4399773225820D+00 -2.9683665454680D-01
    19  1.8000000000000D-01  1.4842735083222D+00 -2.6491184937158D-01
    20  1.9000000000000D-01  1.5233372165696D+00 -2.2811673303484D-01
    21  2.0000000000000D-01  1.5572562021790D+00 -1.8695318742535D-01
    22  2.1000000000000D-01  1.5861493979193D+00 -1.4197464913227D-01
    23  2.2000000000000D-01  1.6101626388200D+00 -9.3774548292507D-02
    24  2.3000000000000D-01  1.6294640934082D+00 -4.2974107622321D-02
    25  2.4000000000000D-01  1.6442394966128D+00  9.7902553163621D-03
    26  2.5000000000000D-01  1.6546872823647D+00  6.3879671746213D-02
    27  2.6000000000000D-01  1.6610137152599D+00  1.1866545738972D-01
    28  2.7000000000000D-01  1.6634281200548D+00  1.7354138845564D-01
    29  2.8000000000000D-01  1.6621383052293D+00  2.2793537300338D-01
    30  2.9000000000000D-01  1.6573462724365D+00  2.8132028451213D-01
    31  3.0000000000000D-01  1.6492442974323D+00  3.3322374079545D-01
    32  3.1000000000000D-01  1.6380114601694D+00  3.8323663200630D-01
    33  3.2000000000000D-01  1.6238106922870D+00  4.3102022599225D-01
    34  3.3000000000000D-01  1.6067863994174D+00  4.7631170722548D-01
    35  3.4000000000000D-01  1.5870627037677D+00  5.1892803641998D-01
    36  3.5000000000000D-01  1.5647423395453D+00  5.5876805117197D-01
    37  3.6000000000000D-01  1.5399062202294D+00  5.9581276288967D-01
    38  3.7000000000000D-01  1.5126136827133D+00  6.3012384124004D-01
    39  3.8000000000000D-01  1.4829033992131D+00  6.6184031364923D-01
    40  3.9000000000000D-01  1.4507949338505D+00  6.9117354333827D-01
    41  4.0000000000000D-01  1.4162909072217D+00  7.1840058426908D-01
    42  4.1000000000000D-01  1.3793797193527D+00  7.4385604452438D-01
    43  4.2000000000000D-01  1.3400387694474D+00  7.6792262040697D-01
    44  4.3000000000000D-01  1.2982381000128D+00  7.9102049129991D-01
    45  4.4000000000000D-01  1.2539443835052D+00  8.1359578953155D-01
    46  4.5000000000000D-01  1.2071251617821D+00  8.3610837964082D-01
    47  4.6000000000000D-01  1.1577532425183D+00  8.5901919712790D-01
    48  4.7000000000000D-01  1.1058111524981D+00  8.8277740766583D-01
    49  4.8000000000000D-01  1.0512955454102D+00  9.0780765360055D-01
    50  4.9000000000000D-01  9.9422146151100D-01  9.3449765523023D-01
    51  5.0000000000000D-01  9.3462633831321D-01  9.6318642977856D-01
    52  5.1000000000000D-01  8.7257367526239D-01  9.9415338121955D-01
    53  5.2000000000000D-01  8.0815626114559D-01  1.0276084993114D+00
    54  5.3000000000000D-01  7.4149888062750D-01  1.0636838866035D+00
    55  5.4000000000000D-01  6.7276042568771D-01  1.1024268081640D+00
    56  5.5000000000000D-01  6.0213534869540D-01  1.1437944307053D+00
    57  5.6000000000000D-01  5.2985440618366D-01  1.1876503862187D+00
    58  5.7000000000000D-01  4.5618465584115D-01  1.2337632607730D+00
    59  5.8000000000000D-01  3.8142868363130D-01  1.2818070722694D+00
    60  5.9000000000000D-01  3.0592305289324D-01  1.3313637626687D+00
    61  6.0000000000000D-01  2.3003598265772D-01  1.3819276908074D+00
    62  6.1000000000000D-01  1.5416427773794D-01  1.4329120726485D+00
    63  6.2000000000000D-01  7.8729548320431D-02  1.4836572769435D+00
    64  6.3000000000000D-01  4.1737713645342D-03  1.5334408468915D+00
    65  6.4000000000000D-01 -6.9045740143217D-02  1.5814890831401D+00
    66  6.5000000000000D-01 -1.4046188131553D-01  1.6269899908328D+00
    67  6.6000000000000D-01 -2.0960372282894D-01  1.6691073644268D+00
    68  6.7000000000000D-01 -2.7600280193169D-01  1.7069957589225D+00
    69  6.8000000000000D-01 -3.3919962922324D-01  1.7398160755822D+00
    70  6.9000000000000D-01 -3.9875029744022D-01  1.7667514747092D+00
    71  7.0000000000000D-01 -4.5423307454921D-01  1.7870233178067D+00
    72  7.1000000000000D-01 -5.0525486168473D-01  1.7999068367139D+00
    73  7.2000000000000D-01 -5.5145739695935D-01  1.8047462283406D+00
    74  7.3000000000000D-01 -5.9252308888767D-01  1.8009688803230D+00
    75  7.4000000000000D-01 -6.2818036812446D-01  1.7880984453363D+00
    76  7.5000000000000D-01 -6.5820845324926D-01  1.7657664995135D+00
    77  7.6000000000000D-01 -6.8244143549508D-01  1.7337225435622D+00
    78  7.7000000000000D-01 -7.0077159827031D-01  1.6918421328726D+00
    79  7.8000000000000D-01 -7.1315190000815D-01  1.6401329550313D+00
    80  7.9000000000000D-01 -7.1959756301838D-01  1.5787387089874D+00
    81  8.0000000000000D-01 -7.2018672637127D-01  1.5079406790442D+00
    82  8.1000000000000D-01 -7.1506013713741D-01  1.4281569381693D+00
    83  8.2000000000000D-01 -7.0441987124180D-01  1.3399391580721D+00
    84  8.3000000000000D-01 -6.8852709245706D-01  1.2439670472912D+00
    85  8.4000000000000D-01 -6.6769887533817D-01  1.1410404823645D+00
    86  8.5000000000000D-01 -6.4230413486908D-01  1.0320694401834D+00
    87  8.6000000000000D-01 -6.1275872192996D-01  9.1806188106430D-01
    88  8.7000000000000D-01 -5.7951975909495D-01  8.0010977110522D-01
    89  8.8000000000000D-01 -5.4307930544027D-01  6.7937346829199D-01
    90  8.9000000000000D-01 -5.0395745170657D-01  5.5706472887577D-01
    91  9.0000000000000D-01 -4.6269495807451D-01  4.3442861813883D-01
    92  9.1000000000000D-01 -4.1984555575886D-01  3.1272463224519D-01
    93  9.2000000000000D-01 -3.7596804042787D-01  1.9320735498088D-01
    94  9.3000000000000D-01 -3.3161828996575D-01  7.7106984462955D-02
    95  9.4000000000000D-01 -2.8734134122091D-01 -3.4389929913725D-02
    96  9.5000000000000D-01 -2.4366366006196D-01 -1.4015920106051D-01
    97  9.6000000000000D-01 -2.0108573628948D-01 -2.3915683636856D-01
    98  9.7000000000000D-01 -1.6007512976605D-01 -3.3043566996038D-01
    99  9.8000000000000D-01 -1.2106008658677D-01 -4.1316049593391D-01
   100  9.9000000000000D-01 -8.4423834231489D-02 -4.8662142889843D-01
   101  1.0000000000000D+00 -5.0499653278089D-02 -5.5024524724541D-01
   102  1.0100000000000D+00 -1.9566809015995D-02 -6.0360451107717D-01
   103  1.0200000000000D+00  8.1525885117838D-03 -6.4642428462453D-01
   104  1.0300000000000D+00  3.2495744248764D-02 -6.7858633579883D-01
   105  1.0400000000000D+00  5.3360323313128D-02 -7.0013073014412D-01
   106  1.0500000000000D+00  7.0704566438867D-02 -7.1125478534994D-01
   107  1.0600000000000D+00  8.4546377149143D-02 -7.1230939506825D-01
   108  1.0700000000000D+00  9.4961403496722D-02 -7.0379278528640D-01
   109  1.0800000000000D+00  1.0208015382679D-01 -6.8634180890480D-01
   110  1.0900000000000D+00  1.0608420445970D-01 -6.6072093119440D-01
   111  1.1000000000000D+00  1.0720157450794D-01 -6.2780910292855D-01
   112  1.1100000000000D+00  1.0570135659978D-01 -5.8858475251575D-01
   113  1.1200000000000D+00  1.0188770929906D-01 -5.4410917175034D-01
   114  1.1300000000000D+00  9.6093326768246D-02 -4.9550859458262D-01
   115  1.1400000000000D+00  8.8672512522116D-02 -4.4395529695847D-01
   116  1.1500000000000D+00  7.9993990611480D-02 -3.9064806222047D-01
   117  1.1600000000000D+00  7.0433595079135D-02 -3.3679237544220D-01
   118  1.1700000000000D+00  6.0366982732624D-02 -2.8358072134275D-01
   119  1.1800000000000D+00  5.0162511451880D-02 -2.3217335110811D-01
   120  1.1900000000000D+00  4.0174317456486D-02 -1.8367958605644D-01
   121  1.2000000000000D+00  3.0736188238304D-02 -1.3914128197614D-01
   122  1.2100000000000D+00  2.2155563180112D-02 -9.9516581622358D-02
   123  1.2200000000000D+00  1.4707376742101D-02 -6.5666785845225D-02
   124  1.2300000000000D+00  8.6163635756765D-03 -3.8291802414278D-02
   125  1.2400000000000D+00  4.0368842288055D-03 -1.7853840324816D-02
   126  1.2500000000000D+00  1.2308184193847D-03 -5.3558565224273D-03
   127  1.2600000000000D+00  8.9350935254062D-05 -2.7217766676342D-04
   128  1.2700000000000D+00 -7.6364892605766D-05  3.9363017272934D-04
   129  1.2800000000000D+00  2.0787609380333D-05 -1.0267780488342D-04
   130  1.2900000000000D+00  9.7836018682730D-06 -4.7583742515368D-05
   131  1.3000000000000D+00 -4.9884117536566D-06  2.5070348510470D-05
   132  1.3100000000000D+00 -3.4151925686900D-08 -3.6429285852469D-08
   133  1.3200000000000D+00 -3.4771998469286D-08 -3.7090707080835D-08
   134  1.3300000000000D+00  0.0000000000000D+00  0.0000000000000D+00
   135  1.3400000000000D+00  0.0000000000000D+00  0.0000000000000D+00
   136  1.3500000000000D+00  0.0000000000000D+00  0.0000000000000D+00
   137  1.3600000000000D+00  0.0000000000000D+00  0.0000000000000D+00
   138  1.3700000000000D+00  0.0000000000000D+00  0.0000000000000D+00
   139  1.3800000000000D+00  0.0000000000000D+00  0.0000000000000D+00
   140  1.3900000000000D+00  0.0000000000000D+00  0.0000000000000D+00
   141  1.4000000000000D+00  0.0000000000000D+00  0.0000000000000D+00
   142  1.4100000000000D+00  0.0000000000000D+00  0.0000000000000D+00
   143  1.4200000000000D+00  0.0000000000000D+00  0.0000000000000D+00
   144  1.4300000000000D+00  0.0000000000000D+00  0.0000000000000D+00
   145  1.4400000000000D+00  0.0000000000000D+00  0.0000000000000D+00
   146  1.4500000000000D+00  0.0000000000000D+00  0.0000000000000D+00
   147  1.4600000000000D+00  0.0000000000000D+00  0.0000000000000D+00
   148  1.4700000000000D+00  0.0000000000000D+00  0.0000000000000D+00
   149  1.4800000000000D+00  0.0000000000000D+00  0.0000000000000D+00
   150  1.4900000000000D+00  0.0000000000000D+00  0.0000000000000D+00
   151  1.5000000000000D+00  0.0000000000000D+00  0.0000000000000D+00
   152  1.5100000000000D+00  0.0000000000000D+00  0.0000000000000D+00
   153  1.5200000000000D+00  0.0000000000000D+00  0.0000000000000D+00
   154  1.5300000000000D+00  0.0000000000000D+00  0.0000000000000D+00
   155  1.5400000000000D+00  0.0000000000000D+00  0.0000000000000D+00
   156  1.5500000000000D+00  0.0000000000000D+00  0.0000000000000D+00
   157  1.5600000000000D+00  0.0000000000000D+00  0.0000000000000D+00
   158  1.5700000000000D+00  0.0000000000000D+00  0.0000000000000D+00
   159  1.5800000000000D+00  0.0000000000000D+00  0.0000000000000D+00
   160  1.5900000000000D+00  0.0000000000000D+00  0.0000000000000D+00
   161  1.6000000000000D+00  0.0000000000000D+00  0.0000000000000D+00
   162  1.6100000000000D+00  0.0000000000000D+00  0.0000000000000D+00
   163  1.6200000000000D+00  0.0000000000000D+00  0.0000000000000D+00
   164  1.6300000000000D+00  0.0000000000000D+00  0.0000000000000D+00
   165  1.6400000000000D+00  0.0000000000000D+00  0.0000000000000D+00
   166  1.6500000000000D+00  0.0000000000000D+00  0.0000000000000D+00
   167  1.6600000000000D+00  0.0000000000000D+00  0.0000000000000D+00
   168  1.6700000000000D+00  0.0000000000000D+00  0.0000000000000D+00
   169  1.6800000000000D+00  0.0000000000000D+00  0.0000000000000D+00
   170  1.6900000000000D+00  0.0000000000000D+00  0.0000000000000D+00
   171  1.7000000000000D+00  0.0000000000000D+00  0.0000000000000D+00
   172  1.7100000000000D+00  0.0000000000000D+00  0.0000000000000D+00
   173  1.7200000000000D+00  0.0000000000000D+00  0.0000000000000D+00
   174  1.7300000000000D+00  0.0000000000000D+00  0.0000000000000D+00
   175  1.7400000000000D+00  0.0000000000000D+00  0.0000000000000D+00
   176  1.7500000000000D+00  0.0000000000000D+00  0.0000000000000D+00
   177  1.7600000000000D+00  0.0000000000000D+00  0.0000000000000D+00
   178  1.7700000000000D+00  0.0000000000000D+00  0.0000000000000D+00
   179  1.7800000000000D+00  0.0000000000000D+00  0.0000000000000D+00
   180  1.7900000000000D+00  0.0000000000000D+00  0.0000000000000D+00
   181  1.8000000000000D+00  0.0000000000000D+00  0.0000000000000D+00
   182  1.8100000000000D+00  0.0000000000000D+00  0.0000000000000D+00
   183  1.8200000000000D+00  0.0000000000000D+00  0.0000000000000D+00
   184  1.8300000000000D+00  0.0000000000000D+00  0.0000000000000D+00
   185  1.8400000000000D+00  0.0000000000000D+00  0.0000000000000D+00
   186  1.8500000000000D+00  0.0000000000000D+00  0.0000000000000D+00
   187  1.8600000000000D+00  0.0000000000000D+00  0.0000000000000D+00
   188  1.8700000000000D+00  0.0000000000000D+00  0.0000000000000D+00
   189  1.8800000000000D+00  0.0000000000000D+00  0.0000000000000D+00
   190  1.8900000000000D+00  0.0000000000000D+00  0.0000000000000D+00
   191  1.9000000000000D+00  0.0000000000000D+00  0.0000000000000D+00
   192  1.9100000000000D+00  0.0000000000000D+00  0.0000000000000D+00
   193  1.9200000000000D+00  0.0000000000000D+00  0.0000000000000D+00
   194  1.9300000000000D+00  0.0000000000000D+00  0.0000000000000D+00
   195  1.9400000000000D+00  0.0000000000000D+00  0.0000000000000D+00
   196  1.9500000000000D+00  0.0000000000000D+00  0.0000000000000D+00
   197  1.9600000000000D+00  0.0000000000000D+00  0.0000000000000D+00
   198  1.9700000000000D+00  0.0000000000000D+00  0.0000000000000D+00
   199  1.9800000000000D+00  0.0000000000000D+00  0.0000000000000D+00
   200  1.9900000000000D+00  0.0000000000000D+00  0.0000000000000D+00
   201  2.0000000000000D+00  0.0000000000000D+00  0.0000000000000D+00
   202  2.0100000000000D+00  0.0000000000000D+00  0.0000000000000D+00
   203  2.0200000000000D+00  0.0000000000000D+00  0.0000000000000D+00
   204  2.0300000000000D+00  0.0000000000000D+00  0.0000000000000D+00
   205  2.0400000000000D+00  0.0000000000000D+00  0.0000000000000D+00
   206  2.0500000000000D+00  0.0000000000000D+00  0.0000000000000D+00
   207  2.0600000000000D+00  0.0000000000000D+00  0.0000000000000D+00
   208  2.0700000000000D+00  0.0000000000000D+00  0.0000000000000D+00
   209  2.0800000000000D+00  0.0000000000000D+00  0.0000000000000D+00
   210  2.0900000000000D+00  0.0000000000000D+00  0.0000000000000D+00
   211  2.1000000000000D+00  0.0000000000000D+00  0.0000000000000D+00
   212  2.1100000000000D+00  0.0000000000000D+00  0.0000000000000D+00
   213  2.1200000000000D+00  0.0000000000000D+00  0.0000000000000D+00
   214  2.1300000000000D+00  0.0000000000000D+00  0.0000000000000D+00
   215  2.1400000000000D+00  0.0000000000000D+00  0.0000000000000D+00
   216  2.1500000000000D+00  0.0000000000000D+00  0.0000000000000D+00
   217  2.1600000000000D+00  0.0000000000000D+00  0.0000000000000D+00
   218  2.1700000000000D+00  0.0000000000000D+00  0.0000000000000D+00
   219  2.1800000000000D+00  0.0000000000000D+00  0.0000000000000D+00
   220  2.1900000000000D+00  0.0000000000000D+00  0.0000000000000D+00
   221  2.2000000000000D+00  0.0000000000000D+00  0.0000000000000D+00
   222  2.2100000000000D+00  0.0000000000000D+00  0.0000000000000D+00
   223  2.2200000000000D+00  0.0000000000000D+00  0.0000000000000D+00
   224  2.2300000000000D+00  0.0000000000000D+00  0.0000000000000D+00
   225  2.2400000000000D+00  0.0000000000000D+00  0.0000000000000D+00
   226  2.2500000000000D+00  0.0000000000000D+00  0.0000000000000D+00
   227  2.2600000000000D+00  0.0000000000000D+00  0.0000000000000D+00
   228  2.2700000000000D+00  0.0000000000000D+00  0.0000000000000D+00
   229  2.2800000000000D+00  0.0000000000000D+00  0.0000000000000D+00
   230  2.2900000000000D+00  0.0000000000000D+00  0.0000000000000D+00
   231  2.3000000000000D+00  0.0000000000000D+00  0.0000000000000D+00
   232  2.3100000000000D+00  0.0000000000000D+00  0.0000000000000D+00
   233  2.3200000000000D+00  0.0000000000000D+00  0.0000000000000D+00
   234  2.3300000000000D+00  0.0000000000000D+00  0.0000000000000D+00
   235  2.3400000000000D+00  0.0000000000000D+00  0.0000000000000D+00
   236  2.3500000000000D+00  0.0000000000000D+00  0.0000000000000D+00
   237  2.3600000000000D+00  0.0000000000000D+00  0.0000000000000D+00
   238  2.3700000000000D+00  0.0000000000000D+00  0.0000000000000D+00
   239  2.3800000000000D+00  0.0000000000000D+00  0.0000000000000D+00
   240  2.3900000000000D+00  0.0000000000000D+00  0.0000000000000D+00
   241  2.4000000000000D+00  0.0000000000000D+00  0.0000000000000D+00
   242  2.4100000000000D+00  0.0000000000000D+00  0.0000000000000D+00
   243  2.4200000000000D+00  0.0000000000000D+00  0.0000000000000D+00
   244  2.4300000000000D+00  0.0000000000000D+00  0.0000000000000D+00
   245  2.4400000000000D+00  0.0000000000000D+00  0.0000000000000D+00
   246  2.4500000000000D+00  0.0000000000000D+00  0.0000000000000D+00
   247  2.4600000000000D+00  0.0000000000000D+00  0.0000000000000D+00
   248  2.4700000000000D+00  0.0000000000000D+00  0.0000000000000D+00
   249  2.4800000000000D+00  0.0000000000000D+00  0.0000000000000D+00
   250  2.4900000000000D+00  0.0000000000000D+00  0.0000000000000D+00
   251  2.5000000000000D+00  0.0000000000000D+00  0.0000000000000D+00
   252  2.5100000000000D+00  0.0000000000000D+00  0.0000000000000D+00
   253  2.5200000000000D+00  0.0000000000000D+00  0.0000000000000D+00
   254  2.5300000000000D+00  0.0000000000000D+00  0.0000000000000D+00
   255  2.5400000000000D+00  0.0000000000000D+00  0.0000000000000D+00
   256  2.5500000000000D+00  0.0000000000000D+00  0.0000000000000D+00
   257  2.5600000000000D+00  0.0000000000000D+00  0.0000000000000D+00
   258  2.5700000000000D+00  0.0000000000000D+00  0.0000000000000D+00
   259  2.5800000000000D+00  0.0000000000000D+00  0.0000000000000D+00
   260  2.5900000000000D+00  0.0000000000000D+00  0.0000000000000D+00
   261  2.6000000000000D+00  0.0000000000000D+00  0.0000000000000D+00
   262  2.6100000000000D+00  0.0000000000000D+00  0.0000000000000D+00
   263  2.6200000000000D+00  0.0000000000000D+00  0.0000000000000D+00
   264  2.6300000000000D+00  0.0000000000000D+00  0.0000000000000D+00
   265  2.6400000000000D+00  0.0000000000000D+00  0.0000000000000D+00
   266  2.6500000000000D+00  0.0000000000000D+00  0.0000000000000D+00
   267  2.6600000000000D+00  0.0000000000000D+00  0.0000000000000D+00
   268  2.6700000000000D+00  0.0000000000000D+00  0.0000000000000D+00
   269  2.6800000000000D+00  0.0000000000000D+00  0.0000000000000D+00
   270  2.6900000000000D+00  0.0000000000000D+00  0.0000000000000D+00
   271  2.7000000000000D+00  0.0000000000000D+00  0.0000000000000D+00
   272  2.7100000000000D+00  0.0000000000000D+00  0.0000000000000D+00
   273  2.7200000000000D+00  0.0000000000000D+00  0.0000000000000D+00
   274  2.7300000000000D+00  0.0000000000000D+00  0.0000000000000D+00
   275  2.7400000000000D+00  0.0000000000000D+00  0.0000000000000D+00
   276  2.7500000000000D+00  0.0000000000000D+00  0.0000000000000D+00
   277  2.7600000000000D+00  0.0000000000000D+00  0.0000000000000D+00
   278  2.7700000000000D+00  0.0000000000000D+00  0.0000000000000D+00
   279  2.7800000000000D+00  0.0000000000000D+00  0.0000000000000D+00
   280  2.7900000000000D+00  0.0000000000000D+00  0.0000000000000D+00
   281  2.8000000000000D+00  0.0000000000000D+00  0.0000000000000D+00
   282  2.8100000000000D+00  0.0000000000000D+00  0.0000000000000D+00
   283  2.8200000000000D+00  0.0000000000000D+00  0.0000000000000D+00
   284  2.8300000000000D+00  0.0000000000000D+00  0.0000000000000D+00
   285  2.8400000000000D+00  0.0000000000000D+00  0.0000000000000D+00
   286  2.8500000000000D+00  0.0000000000000D+00  0.0000000000000D+00
   287  2.8600000000000D+00  0.0000000000000D+00  0.0000000000000D+00
   288  2.8700000000000D+00  0.0000000000000D+00  0.0000000000000D+00
   289  2.8800000000000D+00  0.0000000000000D+00  0.0000000000000D+00
   290  2.8900000000000D+00  0.0000000000000D+00  0.0000000000000D+00
   291  2.9000000000000D+00  0.0000000000000D+00  0.0000000000000D+00
   292  2.9100000000000D+00  0.0000000000000D+00  0.0000000000000D+00
   293  2.9200000000000D+00  0.0000000000000D+00  0.0000000000000D+00
   294  2.9300000000000D+00  0.0000000000000D+00  0.0000000000000D+00
   295  2.9400000000000D+00  0.0000000000000D+00  0.0000000000000D+00
   296  2.9500000000000D+00  0.0000000000000D+00  0.0000000000000D+00
   297  2.9600000000000D+00  0.0000000000000D+00  0.0000000000000D+00
   298  2.9700000000000D+00  0.0000000000000D+00  0.0000000000000D+00
   299  2.9800000000000D+00  0.0000000000000D+00  0.0000000000000D+00
   300  2.9900000000000D+00  0.0000000000000D+00  0.0000000000000D+00
   301  3.0000000000000D+00  0.0000000000000D+00  0.0000000000000D+00
   302  3.0100000000000D+00  0.0000000000000D+00  0.0000000000000D+00
   303  3.0200000000000D+00  0.0000000000000D+00  0.0000000000000D+00
   304  3.0300000000000D+00  0.0000000000000D+00  0.0000000000000D+00
   305  3.0400000000000D+00  0.0000000000000D+00  0.0000000000000D+00
   306  3.0500000000000D+00  0.0000000000000D+00  0.0000000000000D+00
   307  3.0600000000000D+00  0.0000000000000D+00  0.0000000000000D+00
   308  3.0700000000000D+00  0.0000000000000D+00  0.0000000000000D+00
   309  3.0800000000000D+00  0.0000000000000D+00  0.0000000000000D+00
   310  3.0900000000000D+00  0.0000000000000D+00  0.0000000000000D+00
   311  3.1000000000000D+00  0.0000000000000D+00  0.0000000000000D+00
   312  3.1100000000000D+00  0.0000000000000D+00  0.0000000000000D+00
   313  3.1200000000000D+00  0.0000000000000D+00  0.0000000000000D+00
   314  3.1300000000000D+00  0.0000000000000D+00  0.0000000000000D+00
   315  3.1400000000000D+00  0.0000000000000D+00  0.0000000000000D+00
   316  3.1500000000000D+00  0.0000000000000D+00  0.0000000000000D+00
   317  3.1600000000000D+00  0.0000000000000D+00  0.0000000000000D+00
   318  3.1700000000000D+00  0.0000000000000D+00  0.0000000000000D+00
   319  3.1800000000000D+00  0.0000000000000D+00  0.0000000000000D+00
   320  3.1900000000000D+00  0.0000000000000D+00  0.0000000000000D+00
   321  3.2000000000000D+00  0.0000000000000D+00  0.0000000000000D+00
   322  3.2100000000000D+00  0.0000000000000D+00  0.0000000000000D+00
   323  3.2200000000000D+00  0.0000000000000D+00  0.0000000000000D+00
   324  3.2300000000000D+00  0.0000000000000D+00  0.0000000000000D+00
   325  3.2400000000000D+00  0.0000000000000D+00  0.0000000000000D+00
   326  3.2500000000000D+00  0.0000000000000D+00  0.0000000000000D+00
   327  3.2600000000000D+00  0.0000000000000D+00  0.0000000000000D+00
   328  3.2700000000000D+00  0.0000000000000D+00  0.0000000000000D+00
   329  3.2800000000000D+00  0.0000000000000D+00  0.0000000000000D+00
   330  3.2900000000000D+00  0.0000000000000D+00  0.0000000000000D+00
   331  3.3000000000000D+00  0.0000000000000D+00  0.0000000000000D+00
   332  3.3100000000000D+00  0.0000000000000D+00  0.0000000000000D+00
   333  3.3200000000000D+00  0.0000000000000D+00  0.0000000000000D+00
   334  3.3300000000000D+00  0.0000000000000D+00  0.0000000000000D+00
   335  3.3400000000000D+00  0.0000000000000D+00  0.0000000000000D+00
   336  3.3500000000000D+00  0.0000000000000D+00  0.0000000000000D+00
   337  3.3600000000000D+00  0.0000000000000D+00  0.0000000000000D+00
   338  3.3700000000000D+00  0.0000000000000D+00  0.0000000000000D+00
   339  3.3800000000000D+00  0.0000000000000D+00  0.0000000000000D+00
   340  3.3900000000000D+00  0.0000000000000D+00  0.0000000000000D+00
   341  3.4000000000000D+00  0.0000000000000D+00  0.0000000000000D+00
   342  3.4100000000000D+00  0.0000000000000D+00  0.0000000000000D+00
   343  3.4200000000000D+00  0.0000000000000D+00  0.0000000000000D+00
   344  3.4300000000000D+00  0.0000000000000D+00  0.0000000000000D+00
   345  3.4400000000000D+00  0.0000000000000D+00  0.0000000000000D+00
   346  3.4500000000000D+00  0.0000000000000D+00  0.0000000000000D+00
   347  3.4600000000000D+00  0.0000000000000D+00  0.0000000000000D+00
   348  3.4700000000000D+00  0.0000000000000D+00  0.0000000000000D+00
   349  3.4800000000000D+00  0.0000000000000D+00  0.0000000000000D+00
   350  3.4900000000000D+00  0.0000000000000D+00  0.0000000000000D+00
   351  3.5000000000000D+00  0.0000000000000D+00  0.0000000000000D+00
   352  3.5100000000000D+00  0.0000000000000D+00  0.0000000000000D+00
   353  3.5200000000000D+00  0.0000000000000D+00  0.0000000000000D+00
   354  3.5300000000000D+00  0.0000000000000D+00  0.0000000000000D+00
   355  3.5400000000000D+00  0.0000000000000D+00  0.0000000000000D+00
   356  3.5500000000000D+00  0.0000000000000D+00  0.0000000000000D+00
   357  3.5600000000000D+00  0.0000000000000D+00  0.0000000000000D+00
   358  3.5700000000000D+00  0.0000000000000D+00  0.0000000000000D+00
   359  3.5800000000000D+00  0.0000000000000D+00  0.0000000000000D+00
   360  3.5900000000000D+00  0.0000000000000D+00  0.0000000000000D+00
   361  3.6000000000000D+00  0.0000000000000D+00  0.0000000000000D+00
   362  3.6100000000000D+00  0.0000000000000D+00  0.0000000000000D+00
   363  3.6200000000000D+00  0.0000000000000D+00  0.0000000000000D+00
   364  3.6300000000000D+00  0.0000000000000D+00  0.0000000000000D+00
   365  3.6400000000000D+00  0.0000000000000D+00  0.0000000000000D+00
   366  3.6500000000000D+00  0.0000000000000D+00  0.0000000000000D+00
   367  3.6600000000000D+00  0.0000000000000D+00  0.0000000000000D+00
   368  3.6700000000000D+00  0.0000000000000D+00  0.0000000000000D+00
   369  3.6800000000000D+00  0.0000000000000D+00  0.0000000000000D+00
   370  3.6900000000000D+00  0.0000000000000D+00  0.0000000000000D+00
   371  3.7000000000000D+00  0.0000000000000D+00  0.0000000000000D+00
   372  3.7100000000000D+00  0.0000000000000D+00  0.0000000000000D+00
   373  3.7200000000000D+00  0.0000000000000D+00  0.0000000000000D+00
   374  3.7300000000000D+00  0.0000000000000D+00  0.0000000000000D+00
   375  3.7400000000000D+00  0.0000000000000D+00  0.0000000000000D+00
   376  3.7500000000000D+00  0.0000000000000D+00  0.0000000000000D+00
   377  3.7600000000000D+00  0.0000000000000D+00  0.0000000000000D+00
   378  3.7700000000000D+00  0.0000000000000D+00  0.0000000000000D+00
   379  3.7800000000000D+00  0.0000000000000D+00  0.0000000000000D+00
   380  3.7900000000000D+00  0.0000000000000D+00  0.0000000000000D+00
   381  3.8000000000000D+00  0.0000000000000D+00  0.0000000000000D+00
   382  3.8100000000000D+00  0.0000000000000D+00  0.0000000000000D+00
   383  3.8200000000000D+00  0.0000000000000D+00  0.0000000000000D+00
   384  3.8300000000000D+00  0.0000000000000D+00  0.0000000000000D+00
   385  3.8400000000000D+00  0.0000000000000D+00  0.0000000000000D+00
   386  3.8500000000000D+00  0.0000000000000D+00  0.0000000000000D+00
   387  3.8600000000000D+00  0.0000000000000D+00  0.0000000000000D+00
   388  3.8700000000000D+00  0.0000000000000D+00  0.0000000000000D+00
   389  3.8800000000000D+00  0.0000000000000D+00  0.0000000000000D+00
   390  3.8900000000000D+00  0.0000000000000D+00  0.0000000000000D+00
   391  3.9000000000000D+00  0.0000000000000D+00  0.0000000000000D+00
   392  3.9100000000000D+00  0.0000000000000D+00  0.0000000000000D+00
   393  3.9200000000000D+00  0.0000000000000D+00  0.0000000000000D+00
   394  3.9300000000000D+00  0.0000000000000D+00  0.0000000000000D+00
   395  3.9400000000000D+00  0.0000000000000D+00  0.0000000000000D+00
   396  3.9500000000000D+00  0.0000000000000D+00  0.0000000000000D+00
   397  3.9600000000000D+00  0.0000000000000D+00  0.0000000000000D+00
   398  3.9700000000000D+00  0.0000000000000D+00  0.0000000000000D+00
   399  3.9800000000000D+00  0.0000000000000D+00  0.0000000000000D+00
   400  3.9900000000000D+00  0.0000000000000D+00  0.0000000000000D+00
   401  4.0000000000000D+00  0.0000000000000D+00  0.0000000000000D+00
   402  4.0100000000000D+00  0.0000000000000D+00  0.0000000000000D+00
   403  4.0200000000000D+00  0.0000000000000D+00  0.0000000000000D+00
   404  4.0300000000000D+00  0.0000000000000D+00  0.0000000000000D+00
   405  4.0400000000000D+00  0.0000000000000D+00  0.0000000000000D+00
   406  4.0500000000000D+00  0.0000000000000D+00  0.0000000000000D+00
   407  4.0600000000000D+00  0.0000000000000D+00  0.0000000000000D+00
   408  4.0700000000000D+00  0.0000000000000D+00  0.0000000000000D+00
   409  4.0800000000000D+00  0.0000000000000D+00  0.0000000000000D+00
   410  4.0900000000000D+00  0.0000000000000D+00  0.0000000000000D+00
   411  4.1000000000000D+00  0.0000000000000D+00  0.0000000000000D+00
   412  4.1100000000000D+00  0.0000000000000D+00  0.0000000000000D+00
   413  4.1200000000000D+00  0.0000000000000D+00  0.0000000000000D+00
   414  4.1300000000000D+00  0.0000000000000D+00  0.0000000000000D+00
   415  4.1400000000000D+00  0.0000000000000D+00  0.0000000000000D+00
   416  4.1500000000000D+00  0.0000000000000D+00  0.0000000000000D+00
   417  4.1600000000000D+00  0.0000000000000D+00  0.0000000000000D+00
   418  4.1700000000000D+00  0.0000000000000D+00  0.0000000000000D+00
   419  4.1800000000000D+00  0.0000000000000D+00  0.0000000000000D+00
   420  4.1900000000000D+00  0.0000000000000D+00  0.0000000000000D+00
   421  4.2000000000000D+00  0.0000000000000D+00  0.0000000000000D+00
   422  4.2100000000000D+00  0.0000000000000D+00  0.0000000000000D+00