Pb    ONCVPSP  r_core=  2.32  2.61  2.10
     82.0000     14.0000      170103    zatom,zion,pspd
     8   -1012   2     4   600     0    pspcod,pspxc,lmax,lloc,mmax,r2well
  5.99000000  6.00000000  0.00000000    rchrg fchrg qchrg
     2     2     2     0     0    nproj
     0                 extension_switch
   0                         5.1106001606740D+00  6.4690516938628D-01
     1  0.0000000000000D+00  7.8863304775467D-13 -7.4780667769225D-12
     2  1.0000000000000D-02  1.4570724734257D-02  6.3561057440921D-03
     3  2.0000000000000D-02  2.9149864706802D-02  1.2663705857278D-02
     4  3.0000000000000D-02  4.3745798612738D-02  1.8874484372596D-02
     5  4.0000000000000D-02  5.8366832149791D-02  2.4940504029444D-02
     6  5.0000000000000D-02  7.3021161741907D-02  3.0814394074783D-02
     7  6.0000000000000D-02  8.7716838529044D-02  3.6449536207224D-02
     8  7.0000000000000D-02  1.0246173271100D-01  4.1800248053636D-02
     9  8.0000000000000D-02  1.1726349833235D-01  4.6821963575385D-02
    10  9.0000000000000D-02  1.3212953859450D-01  5.1471409810552D-02
    11  1.0000000000000D-01  1.4706697178002D-01  5.5706779369505D-02
    12  1.1000000000000D-01  1.6208259787260D-01  5.9487898114077D-02
    13  1.2000000000000D-01  1.7718286595495D-01  6.2776387465090D-02
    14  1.3000000000000D-01  1.9237384246497D-01  6.5535820799217D-02
    15  1.4000000000000D-01  2.0766118038876D-01  6.7731873414128D-02
    16  1.5000000000000D-01  2.2305008946686D-01  6.9332465560312D-02
    17  1.6000000000000D-01  2.3854530748826D-01  7.0307898058985D-02
    18  1.7000000000000D-01  2.5415107274386D-01  7.0630980048157D-02
    19  1.8000000000000D-01  2.6987109770891D-01  7.0277148422726D-02
    20  1.9000000000000D-01  2.8570854402110D-01  6.9224578560051D-02
    21  2.0000000000000D-01  3.0166599881835D-01  6.7454285948796D-02
    22  2.1000000000000D-01  3.1774545249698D-01  6.4950218367033D-02
    23  2.2000000000000D-01  3.3394827794836D-01  6.1699338284319D-02
    24  2.3000000000000D-01  3.5027521132857D-01  5.7691695192725D-02
    25  2.4000000000000D-01  3.6672633441228D-01  5.2920487602793D-02
    26  2.5000000000000D-01  3.8330105857889D-01  4.7382114472413D-02
    27  2.6000000000000D-01  3.9999811047488D-01  4.1076215869310D-02
    28  2.7000000000000D-01  4.1681551939341D-01  3.4005702701370D-02
    29  2.8000000000000D-01  4.3375060640758D-01  2.6176775383120D-02
    30  2.9000000000000D-01  4.5079997529076D-01  1.7598931341416D-02
    31  3.0000000000000D-01  4.6795950525294D-01  8.2849612981486D-03
    32  3.1000000000000D-01  4.8522434551822D-01 -1.7490656964298D-03
    33  3.2000000000000D-01  5.0258891176475D-01 -1.2483828470970D-02
    34  3.3000000000000D-01  5.2004688444397D-01 -2.3896791136131D-02
    35  3.4000000000000D-01  5.3759120899224D-01 -3.5962251603201D-02
    36  3.5000000000000D-01  5.5521409794351D-01 -4.8651401102257D-02
    37  3.6000000000000D-01  5.7290703494773D-01 -6.1932394548569D-02
    38  3.7000000000000D-01  5.9066078069530D-01 -7.5770431570794D-02
    39  3.8000000000000D-01  6.0846538074387D-01 -9.0127847979883D-02
    40  3.9000000000000D-01  6.2631017523938D-01 -1.0496421742363D-01
    41  4.0000000000000D-01  6.4418381051918D-01 -1.2023646293818D-01
    42  4.1000000000000D-01  6.6207425258093D-01 -1.3589897807516D-01
    43  4.2000000000000D-01  6.7996880239662D-01 -1.5190375725131D-01
    44  4.3000000000000D-01  6.9785411304714D-01 -1.6820053493629D-01
    45  4.4000000000000D-01  7.1571620864881D-01 -1.8473693326503D-01
    46  4.5000000000000D-01  7.3354050503888D-01 -2.0145861763177D-01
    47  4.6000000000000D-01  7.5131183218355D-01 -2.1830945979564D-01
    48  4.7000000000000D-01  7.6901445826781D-01 -2.3523170800194D-01
    49  4.8000000000000D-01  7.8663211542262D-01 -2.5216616359789D-01
    50  4.9000000000000D-01  8.0414802704148D-01 -2.6905236359927D-01
    51  5.0000000000000D-01  8.2154493663437D-01 -2.8582876864229D-01
    52  5.1000000000000D-01  8.3880513816379D-01 -3.0243295573554D-01
    53  5.2000000000000D-01  8.5591050780408D-01 -3.1880181520862D-01
    54  5.3000000000000D-01  8.7284253706189D-01 -3.3487175123803D-01
    55  5.4000000000000D-01  8.8958236719232D-01 -3.5057888531622D-01
    56  5.5000000000000D-01  9.0611082484236D-01 -3.6585926201786D-01
    57  5.6000000000000D-01  9.2240845885000D-01 -3.8064905640648D-01
    58  5.7000000000000D-01  9.3845557812499D-01 -3.9488478241682D-01
    59  5.8000000000000D-01  9.5423229053383D-01 -4.0850350154150D-01
    60  5.9000000000000D-01  9.6971854270986D-01 -4.2144303114728D-01
    61  6.0000000000000D-01  9.8489416070619D-01 -4.3364215174361D-01
    62  6.1000000000000D-01  9.9973889140742D-01 -4.4504081252671D-01
    63  6.2000000000000D-01  1.0142324446138D+00 -4.5558033452528D-01
    64  6.3000000000000D-01  1.0283545357098D+00 -4.6520361067792D-01
    65  6.4000000000000D-01  1.0420849288265D+00 -4.7385530218009D-01
    66  6.5000000000000D-01  1.0554034804074D+00 -4.8148203044679D-01
    67  6.6000000000000D-01  1.0682901830837D+00 -4.8803256404922D-01
    68  6.7000000000000D-01  1.0807252097653D+00 -4.9345799999647D-01
    69  6.8000000000000D-01  1.0926889578524D+00 -4.9771193874963D-01
    70  6.9000000000000D-01  1.1041620934716D+00 -5.0075065237269D-01
    71  7.0000000000000D-01  1.1151255956400D+00 -5.0253324524517D-01
    72  7.1000000000000D-01  1.1255608002594D+00 -5.0302180678274D-01
    73  7.2000000000000D-01  1.1354494438446D+00 -5.0218155563608D-01
    74  7.3000000000000D-01  1.1447737068866D+00 -4.9998097486366D-01
    75  7.4000000000000D-01  1.1535162567551D+00 -4.9639193760216D-01
    76  7.5000000000000D-01  1.1616602900411D+00 -4.9138982278652D-01
    77  7.6000000000000D-01  1.1691895742458D+00 -4.8495362050360D-01
    78  7.7000000000000D-01  1.1760884887167D+00 -4.7706602659477D-01
    79  7.8000000000000D-01  1.1823420647393D+00 -4.6771352615743D-01
    80  7.9000000000000D-01  1.1879360246873D+00 -4.5688646563021D-01
    81  8.0000000000000D-01  1.1928568201421D+00 -4.4457911318325D-01
    82  8.1000000000000D-01  1.1970916688872D+00 -4.3078970717234D-01
    83  8.2000000000000D-01  1.2006285906910D+00 -4.1552049245468D-01
    84  8.3000000000000D-01  1.2034564417891D+00 -3.9877774440277D-01
    85  8.4000000000000D-01  1.2055649479804D+00 -3.8057178049417D-01
    86  8.5000000000000D-01  1.2069447362555D+00 -3.6091695939414D-01
    87  8.6000000000000D-01  1.2075873648748D+00 -3.3983166749131D-01
    88  8.7000000000000D-01  1.2074853518200D+00 -3.1733829288634D-01
    89  8.8000000000000D-01  1.2066322015423D+00 -2.9346318687643D-01
    90  8.9000000000000D-01  1.2050224299368D+00 -2.6823661302010D-01
    91  9.0000000000000D-01  1.2026515874724D+00 -2.4169268390789D-01
    92  9.1000000000000D-01  1.1995162804126D+00 -2.1386928580693D-01
    93  9.2000000000000D-01  1.1956141900647D+00 -1.8480799138740D-01
    94  9.3000000000000D-01  1.1909440899988D+00 -1.5455396078023D-01
    95  9.4000000000000D-01  1.1855058611823D+00 -1.2315583125472D-01
    96  9.5000000000000D-01  1.1793005049786D+00 -9.0665595843756D-02
    97  9.6000000000000D-01  1.1723301539640D+00 -5.7138471282459D-02
    98  9.7000000000000D-01  1.1645980805198D+00 -2.2632755662602D-02
    99  9.8000000000000D-01  1.1561087031623D+00  1.2790323758844D-02
   100  9.9000000000000D-01  1.1468675905769D+00  4.9066772124962D-02
   101  1.0000000000000D+00  1.1368814633267D+00  8.6129997412895D-02
   102  1.0100000000000D+00  1.1261581932133D+00  1.2391098920093D-01
   103  1.0200000000000D+00  1.1147068002680D+00  1.6233850520337D-01
   104  1.0300000000000D+00  1.1025374473613D+00  2.0133926498081D-01
   105  1.0400000000000D+00  1.0896614324198D+00  2.4083815020818D-01
   106  1.0500000000000D+00  1.0760911782463D+00  2.8075841085943D-01
   107  1.0600000000000D+00  1.0618402199445D+00  3.2102187664707D-01
   108  1.0700000000000D+00  1.0469231899538D+00  3.6154917303610D-01
   109  1.0800000000000D+00  1.0313558007045D+00  4.0225994113469D-01
   110  1.0900000000000D+00  1.0151548249122D+00  4.4307306075092D-01
   111  1.1000000000000D+00  9.9833807353004D-01  4.8390687589295D-01
   112  1.1100000000000D+00  9.8092437138829D-01  5.2467942198147D-01
   113  1.1200000000000D+00  9.6293353055186D-01  5.6530865403639D-01
   114  1.1300000000000D+00  9.4438632143429D-01  6.0571267509623D-01
   115  1.1400000000000D+00  9.2530444171068D-01  6.4580996412789D-01
   116  1.1500000000000D+00  9.0571048307760D-01  6.8551960268603D-01
   117  1.1600000000000D+00  8.8562789591297D-01  7.2476149958445D-01
   118  1.1700000000000D+00  8.6508095189467D-01  7.6345661284990D-01
   119  1.1800000000000D+00  8.4409470464138D-01  8.0152716823961D-01
   120  1.1900000000000D+00  8.2269494844331D-01  8.3889687361149D-01
   121  1.2000000000000D+00  8.0090817515666D-01  8.7549112845444D-01
   122  1.2100000000000D+00  7.7876152933987D-01  9.1123722790332D-01
   123  1.2200000000000D+00  7.5628276171445D-01  9.4606456058304D-01
   124  1.2300000000000D+00  7.3350018103670D-01  9.7990479964098D-01
   125  1.2400000000000D+00  7.1044260447310D-01  1.0126920863627D+00
   126  1.2500000000000D+00  6.8713930657541D-01  1.0443632057918D+00
   127  1.2600000000000D+00  6.6361996695349D-01  1.0748577537835D+00
   128  1.2700000000000D+00  6.3991461675179D-01  1.1041182949797D+00
   129  1.2800000000000D+00  6.1605358403677D-01  1.1320905112199D+00
   130  1.2900000000000D+00  5.9206743820456D-01  1.1587233399071D+00
   131  1.3000000000000D+00  5.6798693352512D-01  1.1839691019261D+00
   132  1.3100000000000D+00  5.4384295194024D-01  1.2077836187389D+00
   133  1.3200000000000D+00  5.1966644523370D-01  1.2301263182766D+00
   134  1.3300000000000D+00  4.9548837669891D-01  1.2509603293585D+00
   135  1.3400000000000D+00  4.7133966242809D-01  1.2702525643695D+00
   136  1.3500000000000D+00  4.4725111234963D-01  1.2879737899413D+00
   137  1.3600000000000D+00  4.2325337114453D-01  1.3040986855116D+00
   138  1.3700000000000D+00  3.9937685917097D-01  1.3186058895838D+00
   139  1.3800000000000D+00  3.7565171352977D-01  1.3314780335993D+00
   140  1.3900000000000D+00  3.5210772940375D-01  1.3427017634230D+00
   141  1.4000000000000D+00  3.2877430180390D-01  1.3522677483539D+00
   142  1.4100000000000D+00  3.0568036785725D-01  1.3601706777827D+00
   143  1.4200000000000D+00  2.8285434976941D-01  1.3664092455444D+00
   144  1.4300000000000D+00  2.6032409859704D-01  1.3709861220662D+00
   145  1.4400000000000D+00  2.3811683896103D-01  1.3739079145675D+00
   146  1.4500000000000D+00  2.1625911483602D-01  1.3751851154025D+00
   147  1.4600000000000D+00  1.9477673654415D-01  1.3748320389148D+00
   148  1.4700000000000D+00  1.7369472908419D-01  1.3728667470231D+00
   149  1.4800000000000D+00  1.5303728192529D-01  1.3693109638800D+00
   150  1.4900000000000D+00  1.3282770038519D-01  1.3641899800241D+00
   151  1.5000000000000D+00  1.1308835872607D-01  1.3575325463234D+00
   152  1.5100000000000D+00  9.3840655074586D-02  1.3493707582843D+00
   153  1.5200000000000D+00  7.5104968298381D-02  1.3397399310511D+00
   154  1.5300000000000D+00  5.6900616938817D-02  1.3286784657186D+00
   155  1.5400000000000D+00  3.9245820319705D-02  1.3162277073954D+00
   156  1.5500000000000D+00  2.2157661934025D-02  1.3024317956159D+00
   157  1.5600000000000D+00  5.6520552066366D-03  1.2873375076666D+00
   158  1.5700000000000D+00 -1.0256288258152D-02  1.2709940953989D+00
   159  1.5800000000000D+00 -2.5553887873594D-02  1.2534531161878D+00
   160  1.5900000000000D+00 -4.0228520593682D-02  1.2347682586033D+00
   161  1.6000000000000D+00 -5.4269244723295D-02  1.2149951635048D+00
   162  1.6100000000000D+00 -6.7666420887579D-02  1.1941912411436D+00
   163  1.6200000000000D+00 -8.0411730150546D-02  1.1724154849892D+00
   164  1.6300000000000D+00 -9.2498189154761D-02  1.1497282829056D+00
   165  1.6400000000000D+00 -1.0392016229109D-01  1.1261912263595D+00
   166  1.6500000000000D+00 -1.1467337078160D-01  1.1018669183347D+00
   167  1.6600000000000D+00 -1.2475489869681D-01  1.0768187805833D+00
   168  1.6700000000000D+00 -1.3416319580544D-01  1.0511108609248D+00
   169  1.6800000000000D+00 -1.4289807729110D-01  1.0248076411635D+00
   170  1.6900000000000D+00 -1.5096072024748D-01  9.9797384636104D-01
   171  1.7000000000000D+00 -1.5835365700344D-01  9.7067425596119D-01
   172  1.7100000000000D+00 -1.6508076519916D-01  9.4297351752634D-01
   173  1.7200000000000D+00 -1.7114725468768D-01  9.1493596348553D-01
   174  1.7300000000000D+00 -1.7655965118601D-01  8.8662543168986D-01
   175  1.7400000000000D+00 -1.8132577678089D-01  8.5810509003549D-01
   176  1.7500000000000D+00 -1.8545472720873D-01  8.2943726601856D-01
   177  1.7600000000000D+00 -1.8895684605355D-01  8.0068328128610D-01
   178  1.7700000000000D+00 -1.9184369576948D-01  7.7190329216342D-01
   179  1.7800000000000D+00 -1.9412802571828D-01  7.4315613595933D-01
   180  1.7900000000000D+00 -1.9582373711160D-01  7.1449918418158D-01
   181  1.8000000000000D+00 -1.9694584508715D-01  6.8598820220525D-01
   182  1.8100000000000D+00 -1.9751043781430D-01  6.5767721658312D-01
   183  1.8200000000000D+00 -1.9753463286206D-01  6.2961838943779D-01
   184  1.8300000000000D+00 -1.9703653076806D-01  6.0186190097760D-01
   185  1.8400000000000D+00 -1.9603516601061D-01  5.7445583967280D-01
   186  1.8500000000000D+00 -1.9455045539208D-01  5.4744610079525D-01
   187  1.8600000000000D+00 -1.9260314398297D-01  5.2087629312844D-01
   188  1.8700000000000D+00 -1.9021474872093D-01  4.9478765403861D-01
   189  1.8800000000000D+00 -1.8740749974648D-01  4.6921897315150D-01
   190  1.8900000000000D+00 -1.8420427966436D-01  4.4420652415824D-01
   191  1.9000000000000D+00 -1.8062856074089D-01  4.1978400555584D-01
   192  1.9100000000000D+00 -1.7670434031113D-01  3.9598248913194D-01
   193  1.9200000000000D+00 -1.7245607436483D-01  3.7283037742473D-01
   194  1.9300000000000D+00 -1.6790860960105D-01  3.5035336872690D-01
   195  1.9400000000000D+00 -1.6308711397624D-01  3.2857443050530D-01
   196  1.9500000000000D+00 -1.5801700595748D-01  3.0751378039177D-01
   197  1.9600000000000D+00 -1.5272388261221D-01  2.8718887469628D-01
   198  1.9700000000000D+00 -1.4723344665834D-01  2.6761440445397D-01
   199  1.9800000000000D+00 -1.4157143269070D-01  2.4880229799119D-01
   200  1.9900000000000D+00 -1.3576353266087D-01  2.3076173070728D-01
   201  2.0000000000000D+00 -1.2983532084360D-01  2.1349914062505D-01
   202  2.0100000000000D+00 -1.2381217839803D-01  1.9701825023352D-01
   203  2.0200000000000D+00 -1.1771921770794D-01  1.8132009368746D-01
   204  2.0300000000000D+00 -1.1158120666110D-01  1.6640304904750D-01
   205  2.0400000000000D+00 -1.0542249194201D-01  1.5226286991645D-01
   206  2.0500000000000D+00 -9.9266928314784D-02  1.3889274997381D-01
   207  2.0600000000000D+00 -9.3137791699009D-02  1.2628330881361D-01
   208  2.0700000000000D+00 -8.7057725064434D-02  1.1442273770609D-01
   209  2.0800000000000D+00 -8.1048658765516D-02  1.0329682231629D-01
   210  2.0900000000000D+00 -7.5131727844906D-02  9.2888955173589D-02
   211  2.1000000000000D+00 -6.9327133314658D-02  8.3179832721929D-02
   212  2.1100000000000D+00 -6.3654221055493D-02  7.4148277348531D-02
   213  2.1200000000000D+00 -5.8131462910017D-02  6.5771563895622D-02
   214  2.1300000000000D+00 -5.2776479906172D-02  5.8025895754310D-02
   215  2.1400000000000D+00 -4.7606055916704D-02  5.0886786052137D-02
   216  2.1500000000000D+00 -4.2636252233503D-02  4.4329955222402D-02
   217  2.1600000000000D+00 -3.7882291689594D-02  3.8331037451528D-02
   218  2.1700000000000D+00 -3.3358532595497D-02  3.2865713062339D-02
   219  2.1800000000000D+00 -2.9078434521873D-02  2.7909796158686D-02
   220  2.1900000000000D+00 -2.5054550770938D-02  2.3439459289491D-02
   221  2.2000000000000D+00 -2.1298492269123D-02  1.9431285499734D-02
   222  2.2100000000000D+00 -1.7820908763315D-02  1.5862397946800D-02
   223  2.2200000000000D+00 -1.4631467061311D-02  1.2710559420238D-02
   224  2.2300000000000D+00 -1.1738831252828D-02  9.9542666992185D-03
   225  2.2400000000000D+00 -9.1522184977642D-03  7.5737926139683D-03
   226  2.2500000000000D+00 -6.8759556469209D-03  5.5479708875909D-03
   227  2.2600000000000D+00 -4.9131836518877D-03  3.8565249783222D-03
   228  2.2700000000000D+00 -3.2610227652813D-03  2.4777852248150D-03
   229  2.2800000000000D+00 -1.9454171819141D-03  1.4075648782614D-03
   230  2.2900000000000D+00 -9.8001341566706D-04  6.3598191904731D-04
   231  2.3000000000000D+00 -3.5777869601051D-04  1.4334811067463D-04
   232  2.3100000000000D+00 -2.0288493569508D-05 -1.1155616649169D-04
   233  2.3200000000000D+00  1.0022961589736D-04 -1.7557476383136D-04
   234  2.3300000000000D+00  8.5635930320478D-05 -1.1854148470756D-04
   235  2.3400000000000D+00  1.9075108705308D-05 -2.4402605624822D-05
   236  2.3500000000000D+00 -2.1387399992183D-05  2.6790585378001D-05
   237  2.3600000000000D+00 -2.2974450788400D-05  2.7970195796122D-05
   238  2.3700000000000D+00 -2.4127026356897D-06  2.8824222273166D-06
   239  2.3800000000000D+00  4.4857343577516D-06 -5.9953988933754D-06
   240  2.3900000000000D+00  4.1534971751844D-06 -5.4786968016554D-06
   241  2.4000000000000D+00 -1.3386126624920D-08  3.4823916957430D-08
   242  2.4100000000000D+00 -1.7168076570329D-07  4.4662633901202D-07
   243  2.4200000000000D+00 -1.3548266150957D-07  3.5245721826637D-07
   244  2.4300000000000D+00  0.0000000000000D+00  0.0000000000000D+00
   245  2.4400000000000D+00  0.0000000000000D+00  0.0000000000000D+00
   246  2.4500000000000D+00  0.0000000000000D+00  0.0000000000000D+00
   247  2.4600000000000D+00  0.0000000000000D+00  0.0000000000000D+00
   248  2.4700000000000D+00  0.0000000000000D+00  0.0000000000000D+00
   249  2.4800000000000D+00  0.0000000000000D+00  0.0000000000000D+00
   250  2.4900000000000D+00  0.0000000000000D+00  0.0000000000000D+00
   251  2.5000000000000D+00  0.0000000000000D+00  0.0000000000000D+00
   252  2.5100000000000D+00  0.0000000000000D+00  0.0000000000000D+00
   253  2.5200000000000D+00  0.0000000000000D+00  0.0000000000000D+00
   254  2.5300000000000D+00  0.0000000000000D+00  0.0000000000000D+00
   255  2.5400000000000D+00  0.0000000000000D+00  0.0000000000000D+00
   256  2.5500000000000D+00  0.0000000000000D+00  0.0000000000000D+00
   257  2.5600000000000D+00  0.0000000000000D+00  0.0000000000000D+00
   258  2.5700000000000D+00  0.0000000000000D+00  0.0000000000000D+00
   259  2.5800000000000D+00  0.0000000000000D+00  0.0000000000000D+00
   260  2.5900000000000D+00  0.0000000000000D+00  0.0000000000000D+00
   261  2.6000000000000D+00  0.0000000000000D+00  0.0000000000000D+00
   262  2.6100000000000D+00  0.0000000000000D+00  0.0000000000000D+00
   263  2.6200000000000D+00  0.0000000000000D+00  0.0000000000000D+00
   264  2.6300000000000D+00  0.0000000000000D+00  0.0000000000000D+00
   265  2.6400000000000D+00  0.0000000000000D+00  0.0000000000000D+00
   266  2.6500000000000D+00  0.0000000000000D+00  0.0000000000000D+00
   267  2.6600000000000D+00  0.0000000000000D+00  0.0000000000000D+00
   268  2.6700000000000D+00  0.0000000000000D+00  0.0000000000000D+00
   269  2.6800000000000D+00  0.0000000000000D+00  0.0000000000000D+00
   270  2.6900000000000D+00  0.0000000000000D+00  0.0000000000000D+00
   271  2.7000000000000D+00  0.0000000000000D+00  0.0000000000000D+00
   272  2.7100000000000D+00  0.0000000000000D+00  0.0000000000000D+00
   273  2.7200000000000D+00  0.0000000000000D+00  0.0000000000000D+00
   274  2.7300000000000D+00  0.0000000000000D+00  0.0000000000000D+00
   275  2.7400000000000D+00  0.0000000000000D+00  0.0000000000000D+00
   276  2.7500000000000D+00  0.0000000000000D+00  0.0000000000000D+00
   277  2.7600000000000D+00  0.0000000000000D+00  0.0000000000000D+00
   278  2.7700000000000D+00  0.0000000000000D+00  0.0000000000000D+00
   279  2.7800000000000D+00  0.0000000000000D+00  0.0000000000000D+00
   280  2.7900000000000D+00  0.0000000000000D+00  0.0000000000000D+00
   281  2.8000000000000D+00  0.0000000000000D+00  0.0000000000000D+00
   282  2.8100000000000D+00  0.0000000000000D+00  0.0000000000000D+00
   283  2.8200000000000D+00  0.0000000000000D+00  0.0000000000000D+00
   284  2.8300000000000D+00  0.0000000000000D+00  0.0000000000000D+00
   285  2.8400000000000D+00  0.0000000000000D+00  0.0000000000000D+00
   286  2.8500000000000D+00  0.0000000000000D+00  0.0000000000000D+00
   287  2.8600000000000D+00  0.0000000000000D+00  0.0000000000000D+00
   288  2.8700000000000D+00  0.0000000000000D+00  0.0000000000000D+00
   289  2.8800000000000D+00  0.0000000000000D+00  0.0000000000000D+00
   290  2.8900000000000D+00  0.0000000000000D+00  0.0000000000000D+00
   291  2.9000000000000D+00  0.0000000000000D+00  0.0000000000000D+00
   292  2.9100000000000D+00  0.0000000000000D+00  0.0000000000000D+00
   293  2.9200000000000D+00  0.0000000000000D+00  0.0000000000000D+00
   294  2.9300000000000D+00  0.0000000000000D+00  0.0000000000000D+00
   295  2.9400000000000D+00  0.0000000000000D+00  0.0000000000000D+00
   296  2.9500000000000D+00  0.0000000000000D+00  0.0000000000000D+00
   297  2.9600000000000D+00  0.0000000000000D+00  0.0000000000000D+00
   298  2.9700000000000D+00  0.0000000000000D+00  0.0000000000000D+00
   299  2.9800000000000D+00  0.0000000000000D+00  0.0000000000000D+00
   300  2.9900000000000D+00  0.0000000000000D+00  0.0000000000000D+00
   301  3.0000000000000D+00  0.0000000000000D+00  0.0000000000000D+00
   302  3.0100000000000D+00  0.0000000000000D+00  0.0000000000000D+00
   303  3.0200000000000D+00  0.0000000000000D+00  0.0000000000000D+00
   304  3.0300000000000D+00  0.0000000000000D+00  0.0000000000000D+00
   305  3.0400000000000D+00  0.0000000000000D+00  0.0000000000000D+00
   306  3.0500000000000D+00  0.0000000000000D+00  0.0000000000000D+00
   307  3.0600000000000D+00  0.0000000000000D+00  0.0000000000000D+00
   308  3.0700000000000D+00  0.0000000000000D+00  0.0000000000000D+00
   309  3.0800000000000D+00  0.0000000000000D+00  0.0000000000000D+00
   310  3.0900000000000D+00  0.0000000000000D+00  0.0000000000000D+00
   311  3.1000000000000D+00  0.0000000000000D+00  0.0000000000000D+00
   312  3.1100000000000D+00  0.0000000000000D+00  0.0000000000000D+00
   313  3.1200000000000D+00  0.0000000000000D+00  0.0000000000000D+00
   314  3.1300000000000D+00  0.0000000000000D+00  0.0000000000000D+00
   315  3.1400000000000D+00  0.0000000000000D+00  0.0000000000000D+00
   316  3.1500000000000D+00  0.0000000000000D+00  0.0000000000000D+00
   317  3.1600000000000D+00  0.0000000000000D+00  0.0000000000000D+00
   318  3.1700000000000D+00  0.0000000000000D+00  0.0000000000000D+00
   319  3.1800000000000D+00  0.0000000000000D+00  0.0000000000000D+00
   320  3.1900000000000D+00  0.0000000000000D+00  0.0000000000000D+00
   321  3.2000000000000D+00  0.0000000000000D+00  0.0000000000000D+00
   322  3.2100000000000D+00  0.0000000000000D+00  0.0000000000000D+00
   323  3.2200000000000D+00  0.0000000000000D+00  0.0000000000000D+00
   324  3.2300000000000D+00  0.0000000000000D+00  0.0000000000000D+00
   325  3.2400000000000D+00  0.0000000000000D+00  0.0000000000000D+00
   326  3.2500000000000D+00  0.0000000000000D+00  0.0000000000000D+00
   327  3.2600000000000D+00  0.0000000000000D+00  0.0000000000000D+00
   328  3.2700000000000D+00  0.0000000000000D+00  0.0000000000000D+00
   329  3.2800000000000D+00  0.0000000000000D+00  0.0000000000000D+00
   330  3.2900000000000D+00  0.0000000000000D+00  0.0000000000000D+00
   331  3.3000000000000D+00  0.0000000000000D+00  0.0000000000000D+00
   332  3.3100000000000D+00  0.0000000000000D+00  0.0000000000000D+00
   333  3.3200000000000D+00  0.0000000000000D+00  0.0000000000000D+00
   334  3.3300000000000D+00  0.0000000000000D+00  0.0000000000000D+00
   335  3.3400000000000D+00  0.0000000000000D+00  0.0000000000000D+00
   336  3.3500000000000D+00  0.0000000000000D+00  0.0000000000000D+00
   337  3.3600000000000D+00  0.0000000000000D+00  0.0000000000000D+00
   338  3.3700000000000D+00  0.0000000000000D+00  0.0000000000000D+00
   339  3.3800000000000D+00  0.0000000000000D+00  0.0000000000000D+00
   340  3.3900000000000D+00  0.0000000000000D+00  0.0000000000000D+00
   341  3.4000000000000D+00  0.0000000000000D+00  0.0000000000000D+00
   342  3.4100000000000D+00  0.0000000000000D+00  0.0000000000000D+00
   343  3.4200000000000D+00  0.0000000000000D+00  0.0000000000000D+00
   344  3.4300000000000D+00  0.0000000000000D+00  0.0000000000000D+00
   345  3.4400000000000D+00  0.0000000000000D+00  0.0000000000000D+00
   346  3.4500000000000D+00  0.0000000000000D+00  0.0000000000000D+00
   347  3.4600000000000D+00  0.0000000000000D+00  0.0000000000000D+00
   348  3.4700000000000D+00  0.0000000000000D+00  0.0000000000000D+00
   349  3.4800000000000D+00  0.0000000000000D+00  0.0000000000000D+00
   350  3.4900000000000D+00  0.0000000000000D+00  0.0000000000000D+00
   351  3.5000000000000D+00  0.0000000000000D+00  0.0000000000000D+00
   352  3.5100000000000D+00  0.0000000000000D+00  0.0000000000000D+00
   353  3.5200000000000D+00  0.0000000000000D+00  0.0000000000000D+00
   354  3.5300000000000D+00  0.0000000000000D+00  0.0000000000000D+00
   355  3.5400000000000D+00  0.0000000000000D+00  0.0000000000000D+00
   356  3.5500000000000D+00  0.0000000000000D+00  0.0000000000000D+00
   357  3.5600000000000D+00  0.0000000000000D+00  0.0000000000000D+00
   358  3.5700000000000D+00  0.0000000000000D+00  0.0000000000000D+00
   359  3.5800000000000D+00  0.0000000000000D+00  0.0000000000000D+00
   360  3.5900000000000D+00  0.0000000000000D+00  0.0000000000000D+00
   361  3.6000000000000D+00  0.0000000000000D+00  0.0000000000000D+00
   362  3.6100000000000D+00  0.0000000000000D+00  0.0000000000000D+00
   363  3.6200000000000D+00  0.0000000000000D+00  0.0000000000000D+00
   364  3.6300000000000D+00  0.0000000000000D+00  0.0000000000000D+00
   365  3.6400000000000D+00  0.0000000000000D+00  0.0000000000000D+00
   366  3.6500000000000D+00  0.0000000000000D+00  0.0000000000000D+00
   367  3.6600000000000D+00  0.0000000000000D+00  0.0000000000000D+00
   368  3.6700000000000D+00  0.0000000000000D+00  0.0000000000000D+00
   369  3.6800000000000D+00  0.0000000000000D+00  0.0000000000000D+00
   370  3.6900000000000D+00  0.0000000000000D+00  0.0000000000000D+00
   371  3.7000000000000D+00  0.0000000000000D+00  0.0000000000000D+00
   372  3.7100000000000D+00  0.0000000000000D+00  0.0000000000000D+00
   373  3.7200000000000D+00  0.0000000000000D+00  0.0000000000000D+00
   374  3.7300000000000D+00  0.0000000000000D+00  0.0000000000000D+00
   375  3.7400000000000D+00  0.0000000000000D+00  0.0000000000000D+00
   376  3.7500000000000D+00  0.0000000000000D+00  0.0000000000000D+00
   377  3.7600000000000D+00  0.0000000000000D+00  0.0000000000000D+00
   378  3.7700000000000D+00  0.0000000000000D+00  0.0000000000000D+00
   379  3.7800000000000D+00  0.0000000000000D+00  0.0000000000000D+00
   380  3.7900000000000D+00  0.0000000000000D+00  0.0000000000000D+00
   381  3.8000000000000D+00  0.0000000000000D+00  0.0000000000000D+00
   382  3.8100000000000D+00  0.0000000000000D+00  0.0000000000000D+00
   383  3.8200000000000D+00  0.0000000000000D+00  0.0000000000000D+00
   384  3.8300000000000D+00  0.0000000000000D+00  0.0000000000000D+00
   385  3.8400000000000D+00  0.0000000000000D+00  0.0000000000000D+00
   386  3.8500000000000D+00  0.0000000000000D+00  0.0000000000000D+00
   387  3.8600000000000D+00  0.0000000000000D+00  0.0000000000000D+00
   388  3.8700000000000D+00  0.0000000000000D+00  0.0000000000000D+00
   389  3.8800000000000D+00  0.0000000000000D+00  0.0000000000000D+00
   390  3.8900000000000D+00  0.0000000000000D+00  0.0000000000000D+00
   391  3.9000000000000D+00  0.0000000000000D+00  0.0000000000000D+00
   392  3.9100000000000D+00  0.0000000000000D+00  0.0000000000000D+00
   393  3.9200000000000D+00  0.0000000000000D+00  0.0000000000000D+00
   394  3.9300000000000D+00  0.0000000000000D+00  0.0000000000000D+00
   395  3.9400000000000D+00  0.0000000000000D+00  0.0000000000000D+00
   396  3.9500000000000D+00  0.0000000000000D+00  0.0000000000000D+00
   397  3.9600000000000D+00  0.0000000000000D+00  0.0000000000000D+00
   398  3.9700000000000D+00  0.0000000000000D+00  0.0000000000000D+00
   399  3.9800000000000D+00  0.0000000000000D+00  0.0000000000000D+00
   400  3.9900000000000D+00  0.0000000000000D+00  0.0000000000000D+00
   401  4.0000000000000D+00  0.0000000000000D+00  0.0000000000000D+00
   402  4.0100000000000D+00  0.0000000000000D+00  0.0000000000000D+00
   403  4.0200000000000D+00  0.0000000000000D+00  0.0000000000000D+00
   404  4.0300000000000D+00  0.0000000000000D+00  0.0000000000000D+00
   405  4.0400000000000D+00  0.0000000000000D+00  0.0000000000000D+00
   406  4.0500000000000D+00  0.0000000000000D+00  0.0000000000000D+00
   407  4.0600000000000D+00  0.0000000000000D+00  0.0000000000000D+00
   408  4.0700000000000D+00  0.0000000000000D+00  0.0000000000000D+00
   409  4.0800000000000D+00  0.0000000000000D+00  0.0000000000000D+00
   410  4.0900000000000D+00  0.0000000000000D+00  0.0000000000000D+00
   411  4.1000000000000D+00  0.0000000000000D+00  0.0000000000000D+00
   412  4.1100000000000D+00  0.0000000000000D+00  0.0000000000000D+00
   413  4.1200000000000D+00  0.0000000000000D+00  0.0000000000000D+00
   414  4.1300000000000D+00  0.0000000000000D+00  0.0000000000000D+00
   415  4.1400000000000D+00  0.0000000000000D+00  0.0000000000000D+00
   416  4.1500000000000D+00  0.0000000000000D+00  0.0000000000000D+00
   417  4.1600000000000D+00  0.0000000000000D+00  0.0000000000000D+00
   418  4.1700000000000D+00  0.0000000000000D+00  0.0000000000000D+00
   419  4.1800000000000D+00  0.0000000000000D+00  0.0000000000000D+00
   420  4.1900000000000D+00  0.0000000000000D+00  0.0000000000000D+00
   421  4.2000000000000D+00  0.0000000000000D+00  0.0000000000000D+00
   422  4.2100000000000D+00  0.0000000000000D+00  0.0000000000000D+00
   423  4.2200000000000D+00  0.0000000000000D+00  0.0000000000000D+00