Si    ONCVPSP-3.3.1  r_core=   1.60303   1.72197   1.91712
     14.0000      4.0000      210513    zatom,zion,pspd
     8      11   2     4   600     0    pspcod,pspxc,lmax,lloc,mmax,r2well
  5.99000000  0.00000000  0.00000000    rchrg fchrg qchrg
     2     2     2     0     0    nproj
     1     1           extension_switch
   0                         5.1689652486287D+00  8.2988268857087D-01
     1  0.0000000000000D+00 -5.6328936237637D-09  1.2523286383598D-08
     2  1.0000000000000D-02  3.1595742777015D-02 -7.8297391308100D-03
     3  2.0000000000000D-02  6.2932621171697D-02 -1.5104637965589D-02
     4  3.0000000000000D-02  9.3756650483722D-02 -2.1280726206406D-02
     5  4.0000000000000D-02  1.2382351922083D-01 -2.5835581992615D-02
     6  5.0000000000000D-02  1.5290321178209D-01 -2.8278630488418D-02
     7  6.0000000000000D-02  1.8078437852510D-01 -2.8160880803914D-02
     8  7.0000000000000D-02  2.0727837575326D-01 -2.5083929015497D-02
     9  8.0000000000000D-02  2.3222290379200D-01 -1.8708067574720D-02
    10  9.0000000000000D-02  2.5548517818505D-01 -8.7593566506281D-03
    11  1.0000000000000D-01  2.7696457701810D-01  4.9644693167571D-03
    12  1.1000000000000D-01  2.9659471633404D-01  2.2589366662094D-02
    13  1.2000000000000D-01  3.1434491539088D-01  4.4161704192371D-02
    14  1.3000000000000D-01  3.3022102396694D-01  6.9646403352312D-02
    15  1.4000000000000D-01  3.4426559486102D-01  9.8926534346529D-02
    16  1.5000000000000D-01  3.5655739598574D-01  1.3180438070066D-01
    17  1.6000000000000D-01  3.6721026781926D-01  1.6800395947752D-01
    18  1.7000000000000D-01  3.7637134327350D-01  2.0717495926506D-01
    19  1.8000000000000D-01  3.8421865806525D-01  2.4889803354392D-01
    20  1.9000000000000D-01  3.9095819025289D-01  2.9269136353841D-01
    21  2.0000000000000D-01  3.9682037754801D-01  3.3801838255440D-01
    22  2.1000000000000D-01  4.0205617015793D-01  3.8429653348549D-01
    23  2.2000000000000D-01  4.0693268510666D-01  4.3090691297292D-01
    24  2.3000000000000D-01  4.1172853507800D-01  4.7720463994500D-01
    25  2.4000000000000D-01  4.1672891070268D-01  5.2252977321123D-01
    26  2.5000000000000D-01  4.2222049977043D-01  5.6621859267046D-01
    27  2.6000000000000D-01  4.2848633000600D-01  6.0761505169034D-01
    28  2.7000000000000D-01  4.3580062375002D-01  6.4608220445321D-01
    29  2.8000000000000D-01  4.4442375309684D-01  6.8101341161379D-01
    30  2.9000000000000D-01  4.5459738275486D-01  7.1184313049533D-01
    31  3.0000000000000D-01  4.6653988512733D-01  7.3805710222345D-01
    32  3.1000000000000D-01  4.8044210790409D-01  7.5920175756941D-01
    33  3.2000000000000D-01  4.9646356887393D-01  7.7489267569880D-01
    34  3.3000000000000D-01  5.1472914580154D-01  7.8482194530015D-01
    35  3.4000000000000D-01  5.3532632117317D-01  7.8876429545425D-01
    36  3.5000000000000D-01  5.5830303253184D-01  7.8658188380734D-01
    37  3.6000000000000D-01  5.8366616914392D-01  7.7822765180186D-01
    38  3.7000000000000D-01  6.1138074502942D-01  7.6374718052837D-01
    39  3.8000000000000D-01  6.4136976712237D-01  7.4327900580436D-01
    40  3.9000000000000D-01  6.7351480569461D-01  7.1705337693958D-01
    41  4.0000000000000D-01  7.0765726236686D-01  6.8538946988714D-01
    42  4.1000000000000D-01  7.4360031924286D-01  6.4869109166633D-01
    43  4.2000000000000D-01  7.8111154113335D-01  6.0744093863760D-01
    44  4.3000000000000D-01  8.1992609167969D-01  5.6219349598067D-01
    45  4.4000000000000D-01  8.5975051363169D-01  5.1356668915562D-01
    46  4.5000000000000D-01  9.0026701375821D-01  4.6223241981514D-01
    47  4.6000000000000D-01  9.4113818404018D-01  4.0890613821453D-01
    48  4.7000000000000D-01  9.8201208306530D-01  3.5433562129617D-01
    49  4.8000000000000D-01  1.0225275950451D+00  2.9928914001084D-01
    50  4.9000000000000D-01  1.0623199787243D+00  2.4454321082468D-01
    51  5.0000000000000D-01  1.1010265147391D+00  1.9087013454339D-01
    52  5.1000000000000D-01  1.1382921577792D+00  1.3902553041155D-01
    53  5.2000000000000D-01  1.1737750992528D+00  8.9736074819773D-02
    54  5.3000000000000D-01  1.2071521470799D+00  4.3687651824307D-02
    55  5.4000000000000D-01  1.2381238317138D+00  1.5141170944407D-03
    56  5.5000000000000D-01  1.2664191515156D+00 -3.6213132114260D-02
    57  5.6000000000000D-01  1.2917998760869D+00 -6.8994600628523D-02
    58  5.7000000000000D-01  1.3140643330425D+00 -9.6410987697559D-02
    59  5.8000000000000D-01  1.3330506118733D+00 -1.1813018125985D-01
    60  5.9000000000000D-01  1.3486391278484D+00 -1.3391282813604D-01
    61  6.0000000000000D-01  1.3607544992427D+00 -1.4361637718628D-01
    62  6.1000000000000D-01  1.3693667023289D+00 -1.4719751731378D-01
    63  6.2000000000000D-01  1.3744914803890D+00 -1.4471295851594D-01
    64  6.3000000000000D-01  1.3761899953292D+00 -1.3631853162243D-01
    65  6.4000000000000D-01  1.3745677229774D+00 -1.2226661017116D-01
    66  6.5000000000000D-01  1.3697726058399D+00 -1.0290188610615D-01
    67  6.6000000000000D-01  1.3619924895347D+00 -7.8655558652848D-02
    68  6.7000000000000D-01  1.3514518812252D+00 -5.0038022621286D-02
    69  6.8000000000000D-01  1.3384080800006D+00 -1.7630168211413D-02
    70  6.9000000000000D-01  1.3231467399343D+00  1.7926571665472D-02
    71  7.0000000000000D-01  1.3059769364466D+00  5.5941268588339D-02
    72  7.1000000000000D-01  1.2872258153855D+00  9.5685462905851D-02
    73  7.2000000000000D-01  1.2672329117880D+00  1.3640585095039D-01
    74  7.3000000000000D-01  1.2463442314147D+00  1.7733748749088D-01
    75  7.4000000000000D-01  1.2249061928154D+00  2.1771728546036D-01
    76  7.5000000000000D-01  1.2032595307493D+00  2.5679758828139D-01
    77  7.6000000000000D-01  1.1817332632201D+00  2.9385958703673D-01
    78  7.7000000000000D-01  1.1606388241352D+00  3.2822635541756D-01
    79  7.8000000000000D-01  1.1402644616669D+00  3.5927527980525D-01
    80  7.9000000000000D-01  1.1208699987996D+00  3.8644966997132D-01
    81  8.0000000000000D-01  1.1026820473363D+00  4.0926934760746D-01
    82  8.1000000000000D-01  1.0858897598853D+00  4.2734002505389D-01
    83  8.2000000000000D-01  1.0706411961521D+00  4.4036130495850D-01
    84  8.3000000000000D-01  1.0570403703509D+00  4.4813315289041D-01
    85  8.4000000000000D-01  1.0451450358647D+00  4.5056071882583D-01
    86  8.5000000000000D-01  1.0349652515934D+00  4.4765740954822D-01
    87  8.6000000000000D-01  1.0264627619182D+00  4.3954614194916D-01
    88  8.7000000000000D-01  1.0195512090772D+00  4.2645873653911D-01
    89  8.8000000000000D-01  1.0140971831930D+00  4.0873344071046D-01
    90  8.9000000000000D-01  1.0099221014531D+00  3.8681060195340D-01
    91  9.0000000000000D-01  1.0068048942192D+00  3.6122654181399D-01
    92  9.1000000000000D-01  1.0044854623696D+00  3.3260571140480D-01
    93  9.2000000000000D-01  1.0026688571785D+00  3.0165123824089D-01
    94  9.3000000000000D-01  1.0010301217128D+00  2.6913400160026D-01
    95  9.4000000000000D-01  9.9921972129676D-01  2.3588039904254D-01
    96  9.5000000000000D-01  9.9686948024195D-01  2.0275898973592D-01
    97  9.6000000000000D-01  9.9359893294064D-01  1.7066622045043D-01
    98  9.7000000000000D-01  9.8902198973691D-01  1.4051145712450D-01
    99  9.8000000000000D-01  9.8275381182476D-01  1.1320155855567D-01
   100  9.9000000000000D-01  9.7441778502103D-01  8.9625238481768D-02
   101  1.0000000000000D+00  9.6365247937496D-01  7.0637468636672D-02
   102  1.0100000000000D+00  9.5011848074093D-01  5.7044177113193D-02
   103  1.0200000000000D+00  9.3350498127439D-01  4.9587494385752D-02
   104  1.0300000000000D+00  9.1353601848792D-01  4.8931793253360D-02
   105  1.0400000000000D+00  8.8997625712377D-01  5.5650758536421D-02
   106  1.0500000000000D+00  8.6263621422690D-01  7.0215708576033D-02
   107  1.0600000000000D+00  8.3137683548252D-01  9.2985373336260D-02
   108  1.0700000000000D+00  7.9611334078299D-01  1.2419731170952D-01
   109  1.0800000000000D+00  7.5681826730750D-01  1.6396112750549D-01
   110  1.0900000000000D+00  7.1352365103605D-01  2.1225361530944D-01
   111  1.1000000000000D+00  6.6632230002063D-01  2.6891593964509D-01
   112  1.1100000000000D+00  6.1536812672249D-01  3.3365291959279D-01
   113  1.1200000000000D+00  5.6087552214194D-01  4.0603445654642D-01
   114  1.1300000000000D+00  5.0311776867344D-01  4.8549911104241D-01
   115  1.1400000000000D+00  4.4242450447135D-01  5.7135979917915D-01
   116  1.1500000000000D+00  3.7917826502706D-01  6.6281155029485D-01
   117  1.1600000000000D+00  3.1381014595480D-01  7.5894122672235D-01
   118  1.1700000000000D+00  2.4679464299813D-01  8.5873907962842D-01
   119  1.1800000000000D+00  1.7864373856888D-01  9.6111198526973D-01
   120  1.1900000000000D+00  1.0990031673231D-01  1.0648981778878D+00
   121  1.2000000000000D+00  4.1131001461813D-02  1.1688832666904D+00
   122  1.2100000000000D+00 -2.7081478330896D-02  1.2718173050400D+00
   123  1.2200000000000D+00 -9.4146287279263D-02  1.3724326661382D+00
   124  1.2300000000000D+00 -1.5947272437617D-01  1.4694624539874D+00
   125  1.2400000000000D+00 -2.2247858396123D-01  1.5616591762946D+00
   126  1.2500000000000D+00 -2.8259851108247D-01  1.6478133979065D+00
   127  1.2600000000000D+00 -3.3929222218382D-01  1.7267720862100D+00
   128  1.2700000000000D+00 -3.9205246633310D-01  1.7974563695568D+00
   129  1.2800000000000D+00 -4.4041260297435D-01  1.8588784315243D+00
   130  1.2900000000000D+00 -4.8395367525960D-01  1.9101572707977D+00
   131  1.3000000000000D+00 -5.2231087158519D-01  1.9505330868839D+00
   132  1.3100000000000D+00 -5.5517926783178D-01  1.9793800515922D+00
   133  1.3200000000000D+00 -5.8231875547539D-01  1.9962172546467D+00
   134  1.3300000000000D+00 -6.0355808288852D-01  2.0007176613705D+00
   135  1.3400000000000D+00 -6.1879792844524D-01  1.9927149009117D+00
   136  1.3500000000000D+00 -6.2801295719014D-01  1.9722077776901D+00
   137  1.3600000000000D+00 -6.3125282991677D-01  1.9393624369337D+00
   138  1.3700000000000D+00 -6.2864211837427D-01  1.8945120813685D+00
   139  1.3800000000000D+00 -6.2037914368774D-01  1.8381542778522D+00
   140  1.3900000000000D+00 -6.0673373333659D-01  1.7709458440952D+00
   141  1.4000000000000D+00 -5.8804391632341D-01  1.6936953599617D+00
   142  1.4100000000000D+00 -5.6471162078165D-01  1.6073534475434D+00
   143  1.4200000000000D+00 -5.3719739799418D-01  1.5130008741940D+00
   144  1.4300000000000D+00 -5.0601427325807D-01  1.4118347036040D+00
   145  1.4400000000000D+00 -4.7172079382652D-01  1.3051526524660D+00
   146  1.4500000000000D+00 -4.3491336792946D-01  1.1943358634404D+00
   147  1.4600000000000D+00 -3.9621802194453D-01  1.0808303789372D+00
   148  1.4700000000000D+00 -3.5628166637654D-01  9.6612751896104D-01
   149  1.4800000000000D+00 -3.1576302311521D-01  8.5174350423321D-01
   150  1.4900000000000D+00 -2.7532332440309D-01  7.3919857196252D-01
   151  1.5000000000000D+00 -2.3561693285039D-01  6.2999591848422D-01
   152  1.5100000000000D+00 -1.9728200700707D-01  5.2560074745444D-01
   153  1.5200000000000D+00 -1.6093136501405D-01  4.2741976498526D-01
   154  1.5300000000000D+00 -1.2714365505510D-01  3.3678136493798D-01
   155  1.5400000000000D+00 -9.6454998845211D-02  2.5491687644962D-01
   156  1.5500000000000D+00 -6.9361056050546D-02  1.8296901906319D-01
   157  1.5600000000000D+00 -4.6277330333593D-02  1.2189020006433D-01
   158  1.5700000000000D+00 -2.7467788557832D-02  7.2257648076137D-02
   159  1.5800000000000D+00 -1.3416435142897D-02  3.5251196968605D-02
   160  1.5900000000000D+00 -4.6630669340343D-03  1.2222229379633D-02
   161  1.6000000000000D+00 -5.7408763360207D-04  1.4737343935435D-03
   162  1.6100000000000D+00  4.4952375071160D-04 -1.2023801923302D-03
   163  1.6200000000000D+00  1.1409888477673D-04 -3.0293827570038D-04
   164  1.6300000000000D+00 -1.4021671637526D-04  3.7179028041904D-04
   165  1.6400000000000D+00 -3.4268383194589D-05  9.0768094901639D-05
   166  1.6500000000000D+00  2.5187338136991D-05 -6.7005293704515D-05
   167  1.6600000000000D+00  5.4620805562103D-06 -1.4520890523414D-05
   168  1.6700000000000D+00  6.5194085363750D-08 -7.9149013876716D-08
   169  1.6800000000000D+00  1.3294341589010D-08 -1.6140022841634D-08
   170  1.6900000000000D+00  0.0000000000000D+00  0.0000000000000D+00
   171  1.7000000000000D+00  0.0000000000000D+00  0.0000000000000D+00
   172  1.7100000000000D+00  0.0000000000000D+00  0.0000000000000D+00
   173  1.7200000000000D+00  0.0000000000000D+00  0.0000000000000D+00
   174  1.7300000000000D+00  0.0000000000000D+00  0.0000000000000D+00
   175  1.7400000000000D+00  0.0000000000000D+00  0.0000000000000D+00
   176  1.7500000000000D+00  0.0000000000000D+00  0.0000000000000D+00
   177  1.7600000000000D+00  0.0000000000000D+00  0.0000000000000D+00
   178  1.7700000000000D+00  0.0000000000000D+00  0.0000000000000D+00
   179  1.7800000000000D+00  0.0000000000000D+00  0.0000000000000D+00
   180  1.7900000000000D+00  0.0000000000000D+00  0.0000000000000D+00
   181  1.8000000000000D+00  0.0000000000000D+00  0.0000000000000D+00
   182  1.8100000000000D+00  0.0000000000000D+00  0.0000000000000D+00
   183  1.8200000000000D+00  0.0000000000000D+00  0.0000000000000D+00
   184  1.8300000000000D+00  0.0000000000000D+00  0.0000000000000D+00
   185  1.8400000000000D+00  0.0000000000000D+00  0.0000000000000D+00
   186  1.8500000000000D+00  0.0000000000000D+00  0.0000000000000D+00
   187  1.8600000000000D+00  0.0000000000000D+00  0.0000000000000D+00
   188  1.8700000000000D+00  0.0000000000000D+00  0.0000000000000D+00
   189  1.8800000000000D+00  0.0000000000000D+00  0.0000000000000D+00
   190  1.8900000000000D+00  0.0000000000000D+00  0.0000000000000D+00
   191  1.9000000000000D+00  0.0000000000000D+00  0.0000000000000D+00
   192  1.9100000000000D+00  0.0000000000000D+00  0.0000000000000D+00
   193  1.9200000000000D+00  0.0000000000000D+00  0.0000000000000D+00
   194  1.9300000000000D+00  0.0000000000000D+00  0.0000000000000D+00
   195  1.9400000000000D+00  0.0000000000000D+00  0.0000000000000D+00
   196  1.9500000000000D+00  0.0000000000000D+00  0.0000000000000D+00
   197  1.9600000000000D+00  0.0000000000000D+00  0.0000000000000D+00
   198  1.9700000000000D+00  0.0000000000000D+00  0.0000000000000D+00
   199  1.9800000000000D+00  0.0000000000000D+00  0.0000000000000D+00
   200  1.9900000000000D+00  0.0000000000000D+00  0.0000000000000D+00
   201  2.0000000000000D+00  0.0000000000000D+00  0.0000000000000D+00
   202  2.0100000000000D+00  0.0000000000000D+00  0.0000000000000D+00
   203  2.0200000000000D+00  0.0000000000000D+00  0.0000000000000D+00
   204  2.0300000000000D+00  0.0000000000000D+00  0.0000000000000D+00
   205  2.0400000000000D+00  0.0000000000000D+00  0.0000000000000D+00
   206  2.0500000000000D+00  0.0000000000000D+00  0.0000000000000D+00
   207  2.0600000000000D+00  0.0000000000000D+00  0.0000000000000D+00
   208  2.0700000000000D+00  0.0000000000000D+00  0.0000000000000D+00
   209  2.0800000000000D+00  0.0000000000000D+00  0.0000000000000D+00
   210  2.0900000000000D+00  0.0000000000000D+00  0.0000000000000D+00
   211  2.1000000000000D+00  0.0000000000000D+00  0.0000000000000D+00
   212  2.1100000000000D+00  0.0000000000000D+00  0.0000000000000D+00
   213  2.1200000000000D+00  0.0000000000000D+00  0.0000000000000D+00
   214  2.1300000000000D+00  0.0000000000000D+00  0.0000000000000D+00
   215  2.1400000000000D+00  0.0000000000000D+00  0.0000000000000D+00
   216  2.1500000000000D+00  0.0000000000000D+00  0.0000000000000D+00
   217  2.1600000000000D+00  0.0000000000000D+00  0.0000000000000D+00
   218  2.1700000000000D+00  0.0000000000000D+00  0.0000000000000D+00
   219  2.1800000000000D+00  0.0000000000000D+00  0.0000000000000D+00
   220  2.1900000000000D+00  0.0000000000000D+00  0.0000000000000D+00
   221  2.2000000000000D+00  0.0000000000000D+00  0.0000000000000D+00
   222  2.2100000000000D+00  0.0000000000000D+00  0.0000000000000D+00
   223  2.2200000000000D+00  0.0000000000000D+00  0.0000000000000D+00
   224  2.2300000000000D+00  0.0000000000000D+00  0.0000000000000D+00
   225  2.2400000000000D+00  0.0000000000000D+00  0.0000000000000D+00
   226  2.2500000000000D+00  0.0000000000000D+00  0.0000000000000D+00
   227  2.2600000000000D+00  0.0000000000000D+00  0.0000000000000D+00
   228  2.2700000000000D+00  0.0000000000000D+00  0.0000000000000D+00
   229  2.2800000000000D+00  0.0000000000000D+00  0.0000000000000D+00
   230  2.2900000000000D+00  0.0000000000000D+00  0.0000000000000D+00
   231  2.3000000000000D+00  0.0000000000000D+00  0.0000000000000D+00
   232  2.3100000000000D+00  0.0000000000000D+00  0.0000000000000D+00
   233  2.3200000000000D+00  0.0000000000000D+00  0.0000000000000D+00
   234  2.3300000000000D+00  0.0000000000000D+00  0.0000000000000D+00
   235  2.3400000000000D+00  0.0000000000000D+00  0.0000000000000D+00
   236  2.3500000000000D+00  0.0000000000000D+00  0.0000000000000D+00
   237  2.3600000000000D+00  0.0000000000000D+00  0.0000000000000D+00
   238  2.3700000000000D+00  0.0000000000000D+00  0.0000000000000D+00
   239  2.3800000000000D+00  0.0000000000000D+00  0.0000000000000D+00
   240  2.3900000000000D+00  0.0000000000000D+00  0.0000000000000D+00
   241  2.4000000000000D+00  0.0000000000000D+00  0.0000000000000D+00
   242  2.4100000000000D+00  0.0000000000000D+00  0.0000000000000D+00
   243  2.4200000000000D+00  0.0000000000000D+00  0.0000000000000D+00
   244  2.4300000000000D+00  0.0000000000000D+00  0.0000000000000D+00
   245  2.4400000000000D+00  0.0000000000000D+00  0.0000000000000D+00
   246  2.4500000000000D+00  0.0000000000000D+00  0.0000000000000D+00
   247  2.4600000000000D+00  0.0000000000000D+00  0.0000000000000D+00
   248  2.4700000000000D+00  0.0000000000000D+00  0.0000000000000D+00
   249  2.4800000000000D+00  0.0000000000000D+00  0.0000000000000D+00
   250  2.4900000000000D+00  0.0000000000000D+00  0.0000000000000D+00
   251  2.5000000000000D+00  0.0000000000000D+00  0.0000000000000D+00
   252  2.5100000000000D+00  0.0000000000000D+00  0.0000000000000D+00
   253  2.5200000000000D+00  0.0000000000000D+00  0.0000000000000D+00
   254  2.5300000000000D+00  0.0000000000000D+00  0.0000000000000D+00
   255  2.5400000000000D+00  0.0000000000000D+00  0.0000000000000D+00
   256  2.5500000000000D+00  0.0000000000000D+00  0.0000000000000D+00
   257  2.5600000000000D+00  0.0000000000000D+00  0.0000000000000D+00
   258  2.5700000000000D+00  0.0000000000000D+00  0.0000000000000D+00
   259  2.5800000000000D+00  0.0000000000000D+00  0.0000000000000D+00
   260  2.5900000000000D+00  0.0000000000000D+00  0.0000000000000D+00
   261  2.6000000000000D+00  0.0000000000000D+00  0.0000000000000D+00
   262  2.6100000000000D+00  0.0000000000000D+00  0.0000000000000D+00
   263  2.6200000000000D+00  0.0000000000000D+00  0.0000000000000D+00
   264  2.6300000000000D+00  0.0000000000000D+00  0.0000000000000D+00
   265  2.6400000000000D+00  0.0000000000000D+00  0.0000000000000D+00
   266  2.6500000000000D+00  0.0000000000000D+00  0.0000000000000D+00
   267  2.6600000000000D+00  0.0000000000000D+00  0.0000000000000D+00
   268  2.6700000000000D+00  0.0000000000000D+00  0.0000000000000D+00
   269  2.6800000000000D+00  0.0000000000000D+00  0.0000000000000D+00
   270  2.6900000000000D+00  0.0000000000000D+00  0.0000000000000D+00
   271  2.7000000000000D+00  0.0000000000000D+00  0.0000000000000D+00
   272  2.7100000000000D+00  0.0000000000000D+00  0.0000000000000D+00
   273  2.7200000000000D+00  0.0000000000000D+00  0.0000000000000D+00
   274  2.7300000000000D+00  0.0000000000000D+00  0.0000000000000D+00
   275  2.7400000000000D+00  0.0000000000000D+00  0.0000000000000D+00
   276  2.7500000000000D+00  0.0000000000000D+00  0.0000000000000D+00
   277  2.7600000000000D+00  0.0000000000000D+00  0.0000000000000D+00
   278  2.7700000000000D+00  0.0000000000000D+00  0.0000000000000D+00
   279  2.7800000000000D+00  0.0000000000000D+00  0.0000000000000D+00
   280  2.7900000000000D+00  0.0000000000000D+00  0.0000000000000D+00
   281  2.8000000000000D+00  0.0000000000000D+00  0.0000000000000D+00
   282  2.8100000000000D+00  0.0000000000000D+00  0.0000000000000D+00
   283  2.8200000000000D+00  0.0000000000000D+00  0.0000000000000D+00
   284  2.8300000000000D+00  0.0000000000000D+00  0.0000000000000D+00
   285  2.8400000000000D+00  0.0000000000000D+00  0.0000000000000D+00
   286  2.8500000000000D+00  0.0000000000000D+00  0.0000000000000D+00
   287  2.8600000000000D+00  0.0000000000000D+00  0.0000000000000D+00
   288  2.8700000000000D+00  0.0000000000000D+00  0.0000000000000D+00
   289  2.8800000000000D+00  0.0000000000000D+00  0.0000000000000D+00
   290  2.8900000000000D+00  0.0000000000000D+00  0.0000000000000D+00
   291  2.9000000000000D+00  0.0000000000000D+00  0.0000000000000D+00
   292  2.9100000000000D+00  0.0000000000000D+00  0.0000000000000D+00
   293  2.9200000000000D+00  0.0000000000000D+00  0.0000000000000D+00
   294  2.9300000000000D+00  0.0000000000000D+00  0.0000000000000D+00
   295  2.9400000000000D+00  0.0000000000000D+00  0.0000000000000D+00
   296  2.9500000000000D+00  0.0000000000000D+00  0.0000000000000D+00
   297  2.9600000000000D+00  0.0000000000000D+00  0.0000000000000D+00
   298  2.9700000000000D+00  0.0000000000000D+00  0.0000000000000D+00
   299  2.9800000000000D+00  0.0000000000000D+00  0.0000000000000D+00
   300  2.9900000000000D+00  0.0000000000000D+00  0.0000000000000D+00
   301  3.0000000000000D+00  0.0000000000000D+00  0.0000000000000D+00
   302  3.0100000000000D+00  0.0000000000000D+00  0.0000000000000D+00
   303  3.0200000000000D+00  0.0000000000000D+00  0.0000000000000D+00
   304  3.0300000000000D+00  0.0000000000000D+00  0.0000000000000D+00
   305  3.0400000000000D+00  0.0000000000000D+00  0.0000000000000D+00
   306  3.0500000000000D+00  0.0000000000000D+00  0.0000000000000D+00
   307  3.0600000000000D+00  0.0000000000000D+00  0.0000000000000D+00
   308  3.0700000000000D+00  0.0000000000000D+00  0.0000000000000D+00
   309  3.0800000000000D+00  0.0000000000000D+00  0.0000000000000D+00
   310  3.0900000000000D+00  0.0000000000000D+00  0.0000000000000D+00
   311  3.1000000000000D+00  0.0000000000000D+00  0.0000000000000D+00
   312  3.1100000000000D+00  0.0000000000000D+00  0.0000000000000D+00
   313  3.1200000000000D+00  0.0000000000000D+00  0.0000000000000D+00
   314  3.1300000000000D+00  0.0000000000000D+00  0.0000000000000D+00
   315  3.1400000000000D+00  0.0000000000000D+00  0.0000000000000D+00
   316  3.1500000000000D+00  0.0000000000000D+00  0.0000000000000D+00
   317  3.1600000000000D+00  0.0000000000000D+00  0.0000000000000D+00
   318  3.1700000000000D+00  0.0000000000000D+00  0.0000000000000D+00
   319  3.1800000000000D+00  0.0000000000000D+00  0.0000000000000D+00
   320  3.1900000000000D+00  0.0000000000000D+00  0.0000000000000D+00
   321  3.2000000000000D+00  0.0000000000000D+00  0.0000000000000D+00
   322  3.2100000000000D+00  0.0000000000000D+00  0.0000000000000D+00
   323  3.2200000000000D+00  0.0000000000000D+00  0.0000000000000D+00
   324  3.2300000000000D+00  0.0000000000000D+00  0.0000000000000D+00
   325  3.2400000000000D+00  0.0000000000000D+00  0.0000000000000D+00
   326  3.2500000000000D+00  0.0000000000000D+00  0.0000000000000D+00
   327  3.2600000000000D+00  0.0000000000000D+00  0.0000000000000D+00
   328  3.2700000000000D+00  0.0000000000000D+00  0.0000000000000D+00
   329  3.2800000000000D+00  0.0000000000000D+00  0.0000000000000D+00
   330  3.2900000000000D+00  0.0000000000000D+00  0.0000000000000D+00
   331  3.3000000000000D+00  0.0000000000000D+00  0.0000000000000D+00
   332  3.3100000000000D+00  0.0000000000000D+00  0.0000000000000D+00
   333  3.3200000000000D+00  0.0000000000000D+00  0.0000000000000D+00
   334  3.3300000000000D+00  0.0000000000000D+00  0.0000000000000D+00
   335  3.3400000000000D+00  0.0000000000000D+00  0.0000000000000D+00
   336  3.3500000000000D+00  0.0000000000000D+00  0.0000000000000D+00
   337  3.3600000000000D+00  0.0000000000000D+00  0.0000000000000D+00
   338  3.3700000000000D+00  0.0000000000000D+00  0.0000000000000D+00
   339  3.3800000000000D+00  0.0000000000000D+00  0.0000000000000D+00
   340  3.3900000000000D+00  0.0000000000000D+00  0.0000000000000D+00
   341  3.4000000000000D+00  0.0000000000000D+00  0.0000000000000D+00
   342  3.4100000000000D+00  0.0000000000000D+00  0.0000000000000D+00
   343  3.4200000000000D+00  0.0000000000000D+00  0.0000000000000D+00
   344  3.4300000000000D+00  0.0000000000000D+00  0.0000000000000D+00
   345  3.4400000000000D+00  0.0000000000000D+00  0.0000000000000D+00
   346  3.4500000000000D+00  0.0000000000000D+00  0.0000000000000D+00
   347  3.4600000000000D+00  0.0000000000000D+00  0.0000000000000D+00
   348  3.4700000000000D+00  0.0000000000000D+00  0.0000000000000D+00
   349  3.4800000000000D+00  0.0000000000000D+00  0.0000000000000D+00
   350  3.4900000000000D+00  0.0000000000000D+00  0.0000000000000D+00
   351  3.5000000000000D+00  0.0000000000000D+00  0.0000000000000D+00
   352  3.5100000000000D+00  0.0000000000000D+00  0.0000000000000D+00
   353  3.5200000000000D+00  0.0000000000000D+00  0.0000000000000D+00
   354  3.5300000000000D+00  0.0000000000000D+00  0.0000000000000D+00
   355  3.5400000000000D+00  0.0000000000000D+00  0.0000000000000D+00
   356  3.5500000000000D+00  0.0000000000000D+00  0.0000000000000D+00
   357  3.5600000000000D+00  0.0000000000000D+00  0.0000000000000D+00
   358  3.5700000000000D+00  0.0000000000000D+00  0.0000000000000D+00
   359  3.5800000000000D+00  0.0000000000000D+00  0.0000000000000D+00
   360  3.5900000000000D+00  0.0000000000000D+00  0.0000000000000D+00
   361  3.6000000000000D+00  0.0000000000000D+00  0.0000000000000D+00
   362  3.6100000000000D+00  0.0000000000000D+00  0.0000000000000D+00
   363  3.6200000000000D+00  0.0000000000000D+00  0.0000000000000D+00
   364  3.6300000000000D+00  0.0000000000000D+00  0.0000000000000D+00
   365  3.6400000000000D+00  0.0000000000000D+00  0.0000000000000D+00
   366  3.6500000000000D+00  0.0000000000000D+00  0.0000000000000D+00
   367  3.6600000000000D+00  0.0000000000000D+00  0.0000000000000D+00
   368  3.6700000000000D+00  0.0000000000000D+00  0.0000000000000D+00
   369  3.6800000000000D+00  0.0000000000000D+00  0.0000000000000D+00
   370  3.6900000000000D+00  0.0000000000000D+00  0.0000000000000D+00
   371  3.7000000000000D+00  0.0000000000000D+00  0.0000000000000D+00
   372  3.7100000000000D+00  0.0000000000000D+00  0.0000000000000D+00
   373  3.7200000000000D+00  0.0000000000000D+00  0.0000000000000D+00
   374  3.7300000000000D+00  0.0000000000000D+00  0.0000000000000D+00
   375  3.7400000000000D+00  0.0000000000000D+00  0.0000000000000D+00
   376  3.7500000000000D+00  0.0000000000000D+00  0.0000000000000D+00
   377  3.7600000000000D+00  0.0000000000000D+00  0.0000000000000D+00
   378  3.7700000000000D+00  0.0000000000000D+00  0.0000000000000D+00
   379  3.7800000000000D+00  0.0000000000000D+00  0.0000000000000D+00
   380  3.7900000000000D+00  0.0000000000000D+00  0.0000000000000D+00
   381  3.8000000000000D+00  0.0000000000000D+00  0.0000000000000D+00
   382  3.8100000000000D+00  0.0000000000000D+00  0.0000000000000D+00
   383  3.8200000000000D+00  0.0000000000000D+00  0.0000000000000D+00
   384  3.8300000000000D+00  0.0000000000000D+00  0.0000000000000D+00
   385  3.8400000000000D+00  0.0000000000000D+00  0.0000000000000D+00
   386  3.8500000000000D+00  0.0000000000000D+00  0.0000000000000D+00
   387  3.8600000000000D+00  0.0000000000000D+00  0.0000000000000D+00
   388  3.8700000000000D+00  0.0000000000000D+00  0.0000000000000D+00
   389  3.8800000000000D+00  0.0000000000000D+00  0.0000000000000D+00
   390  3.8900000000000D+00  0.0000000000000D+00  0.0000000000000D+00
   391  3.9000000000000D+00  0.0000000000000D+00  0.0000000000000D+00
   392  3.9100000000000D+00  0.0000000000000D+00  0.0000000000000D+00
   393  3.9200000000000D+00  0.0000000000000D+00  0.0000000000000D+00
   394  3.9300000000000D+00  0.0000000000000D+00  0.0000000000000D+00
   395  3.9400000000000D+00  0.0000000000000D+00  0.0000000000000D+00
   396  3.9500000000000D+00  0.0000000000000D+00  0.0000000000000D+00
   397  3.9600000000000D+00  0.0000000000000D+00  0.0000000000000D+00
   398  3.9700000000000D+00  0.0000000000000D+00  0.0000000000000D+00
   399  3.9800000000000D+00  0.0000000000000D+00  0.0000000000000D+00
   400  3.9900000000000D+00  0.0000000000000D+00  0.0000000000000D+00
   401  4.0000000000000D+00  0.0000000000000D+00  0.0000000000000D+00
   402  4.0100000000000D+00  0.0000000000000D+00  0.0000000000000D+00
   403  4.0200000000000D+00  0.0000000000000D+00  0.0000000000000D+00
   404  4.0300000000000D+00  0.0000000000000D+00  0.0000000000000D+00
   405  4.0400000000000D+00  0.0000000000000D+00  0.0000000000000D+00
   406  4.0500000000000D+00  0.0000000000000D+00  0.0000000000000D+00
   407  4.0600000000000D+00  0.0000000000000D+00  0.0000000000000D+00
   408  4.0700000000000D+00  0.0000000000000D+00  0.0000000000000D+00
   409  4.0800000000000D+00  0.0000000000000D+00  0.0000000000000D+00
   410  4.0900000000000D+00  0.0000000000000D+00  0.0000000000000D+00
   411  4.1000000000000D+00  0.0000000000000D+00  0.0000000000000D+00
   412  4.1100000000000D+00  0.0000000000000D+00  0.0000000000000D+00
   413  4.1200000000000D+00  0.0000000000000D+00  0.0000000000000D+00
   414  4.1300000000000D+00  0.0000000000000D+00  0.0000000000000D+00
   415  4.1400000000000D+00  0.0000000000000D+00  0.0000000000000D+00
   416  4.1500000000000D+00  0.0000000000000D+00  0.0000000000000D+00
   417  4.1600000000000D+00  0.0000000000000D+00  0.0000000000000D+00
   418  4.1700000000000D+00  0.0000000000000D+00  0.0000000000000D+00
   419  4.1800000000000D+00  0.0000000000000D+00  0.0000000000000D+00
   420  4.1900000000000D+00  0.0000000000000D+00  0.0000000000000D+00
   421  4.2000000000000D+00  0.0000000000000D+00  0.0000000000000D+00
   422  4.2100000000000D+00  0.0000000000000D+00  0.0000000000000D+00