Si    ONCVPSP-3.3.1  r_core=   1.60303   1.72197   1.91712
     14.0000      4.0000      211215    zatom,zion,pspd
     8   -1012   2     4   600     0    pspcod,pspxc,lmax,lloc,mmax,r2well
  5.99000000  0.00000000  0.00000000    rchrg fchrg qchrg
     2     2     2     0     0    nproj
     1     1           extension_switch
   0                         5.5659579770140D+00  8.5696624629287D-01
     1  0.0000000000000D+00 -5.2059879462885D-09  1.2384326668335D-08
     2  1.0000000000000D-02  3.2076315734103D-02 -1.0946676888757D-02
     3  2.0000000000000D-02  6.3909649862577D-02 -2.1334775278413D-02
     4  3.0000000000000D-02  9.5261552558745D-02 -3.0616528464589D-02
     5  4.0000000000000D-02  1.2590255774140D-01 -3.8265603423460D-02
     6  5.0000000000000D-02  1.5561647677407D-01 -4.3787346109353D-02
     7  6.0000000000000D-02  1.8420445813460D-01 -4.6728469889910D-02
     8  7.0000000000000D-02  2.1148874127525D-01 -4.6686016318455D-02
     9  8.0000000000000D-02  2.3731603809923D-01 -4.3315429827504D-02
    10  9.0000000000000D-02  2.6156048182243D-01 -3.6337603015156D-02
    11  1.0000000000000D-01  2.8412609036204D-01 -2.5544766735430D-02
    12  1.1000000000000D-01  3.0494869967447D-01 -1.0805118901027D-02
    13  1.2000000000000D-01  3.2399733151463D-01  7.9338925668610D-03
    14  1.3000000000000D-01  3.4127496975560D-01  3.0643694212669D-02
    15  1.4000000000000D-01  3.5681872953061D-01  5.7214156437980D-02
    16  1.5000000000000D-01  3.7069941386804D-01  8.7454620547104D-02
    17  1.6000000000000D-01  3.8302046301028D-01  1.2109637116298D-01
    18  1.7000000000000D-01  3.9391631206186D-01  1.5779651686617D-01
    19  1.8000000000000D-01  4.0355018282570D-01  1.9714321762176D-01
    20  1.9000000000000D-01  4.1211134548600D-01  2.3866217425655D-01
    21  2.0000000000000D-01  4.1981189501654D-01  2.8182427332551D-01
    22  2.1000000000000D-01  4.2688309567861D-01  3.2605426053445D-01
    23  2.2000000000000D-01  4.3357135457743D-01  3.7074029780764D-01
    24  2.3000000000000D-01  4.4013389184183D-01  4.1524424341483D-01
    25  2.4000000000000D-01  4.4683418046400D-01  4.5891248157002D-01
    26  2.5000000000000D-01  4.5393723309022D-01  5.0108711781148D-01
    27  2.6000000000000D-01  4.6170481601490D-01  5.4111734944583D-01
    28  2.7000000000000D-01  4.7039067224456D-01  5.7837081651565D-01
    29  2.8000000000000D-01  4.8023583573550D-01  6.1224473820497D-01
    30  2.9000000000000D-01  4.9146411775911D-01  6.4217664234796D-01
    31  3.0000000000000D-01  5.0427784382850D-01  6.6765450171994D-01
    32  3.1000000000000D-01  5.1885391576470D-01  6.8822609997456D-01
    33  3.2000000000000D-01  5.3534026835194D-01  7.0350746230618D-01
    34  3.3000000000000D-01  5.5385278370985D-01  7.1319020096539D-01
    35  3.4000000000000D-01  5.7447271909675D-01  7.1704764339995D-01
    36  3.5000000000000D-01  5.9724469547352D-01  7.1493963074444D-01
    37  3.6000000000000D-01  6.2217528493722D-01  7.0681589631720D-01
    38  3.7000000000000D-01  6.4923222522911D-01  6.9271795734123D-01
    39  3.8000000000000D-01  6.7834427909557D-01  6.7277947790111D-01
    40  3.9000000000000D-01  7.0940174550423D-01  6.4722508676989D-01
    41  4.0000000000000D-01  7.4225761877116D-01  6.1636765976282D-01
    42  4.1000000000000D-01  7.7672938071829D-01  5.8060410226800D-01
    43  4.2000000000000D-01  8.1260140023778D-01  5.4040969312986D-01
    44  4.3000000000000D-01  8.4962790427106D-01  4.9633107569313D-01
    45  4.4000000000000D-01  8.8753647438957D-01  4.4897800513669D-01
    46  4.5000000000000D-01  9.2603201405793D-01  3.9901398284265D-01
    47  4.6000000000000D-01  9.6480112342456D-01  3.4714592808656D-01
    48  4.7000000000000D-01  1.0035168112598D+00  2.9411305446472D-01
    49  4.8000000000000D-01  1.0418434675740D+00  2.4067513289451D-01
    50  4.9000000000000D-01  1.0794420156044D+00  1.8760033448100D-01
    51  5.0000000000000D-01  1.1159751583465D+00  1.3565285482883D-01
    52  5.1000000000000D-01  1.1511126326905D+00  8.5580526340263D-02
    53  5.2000000000000D-01  1.1845363835455D+00  3.8102626576900D-02
    54  5.3000000000000D-01  1.2159455711173D+00 -6.1019111775689D-03
    55  5.4000000000000D-01  1.2450613267372D+00 -4.6405684398751D-02
    56  5.5000000000000D-01  1.2716311763042D+00 -8.2243212886089D-02
    57  5.6000000000000D-01  1.2954330554282D+00 -1.1312035548189D-01
    58  5.7000000000000D-01  1.3162788466907D+00 -1.3862258713830D-01
    59  5.8000000000000D-01  1.3340173769713D+00 -1.5842198951114D-01
    60  5.9000000000000D-01  1.3485368213822D+00 -1.7228282876851D-01
    61  6.0000000000000D-01  1.3597664699209D+00 -1.8006561711453D-01
    62  6.1000000000000D-01  1.3676778232831D+00 -1.8172957916161D-01
    63  6.2000000000000D-01  1.3722849952456D+00 -1.7733347041048D-01
    64  6.3000000000000D-01  1.3736444104761D+00 -1.6703472236597D-01
    65  6.4000000000000D-01  1.3718537982508D+00 -1.5108691648538D-01
    66  6.5000000000000D-01  1.3670504943721D+00 -1.2983561727332D-01
    67  6.6000000000000D-01  1.3594090751815D+00 -1.0371262242784D-01
    68  6.7000000000000D-01  1.3491383588465D+00 -7.3228714785432D-02
    69  6.8000000000000D-01  1.3364778199633D+00 -3.8965026621838D-02
    70  6.9000000000000D-01  1.3216934736007D+00 -1.5631508216441D-03
    71  7.0000000000000D-01  1.3050732941783D+00  3.8285844573009D-02
    72  7.1000000000000D-01  1.2869222428230D+00  7.9853322357711D-02
    73  7.2000000000000D-01  1.2675569839432D+00  1.2238570981954D-01
    74  7.3000000000000D-01  1.2473003775523D+00  1.6511765347326D-01
    75  7.4000000000000D-01  1.2264758382940D+00  2.0728547787516D-01
    76  7.5000000000000D-01  1.2054016550671D+00  2.4814072461679D-01
    77  7.6000000000000D-01  1.1843853665673D+00  2.8696354433062D-01
    78  7.7000000000000D-01  1.1637182879152D+00  3.2307571501833D-01
    79  7.8000000000000D-01  1.1436702818220D+00  3.5585306422645D-01
    80  7.9000000000000D-01  1.1244848644735D+00  3.8473708051031D-01
    81  8.0000000000000D-01  1.1063747315272D+00  4.0924551114735D-01
    82  8.1000000000000D-01  1.0895177833901D+00  4.2898175801942D-01
    83  8.2000000000000D-01  1.0740537213607D+00  4.4364290176226D-01
    84  8.3000000000000D-01  1.0600812773975D+00  4.5302620540490D-01
    85  8.4000000000000D-01  1.0476561303526D+00  4.5703397246984D-01
    86  8.5000000000000D-01  1.0367895506307D+00  4.5567666050845D-01
    87  8.6000000000000D-01  1.0274478035815D+00  4.4907417889607D-01
    88  8.7000000000000D-01  1.0195523296816D+00  4.3745532897015D-01
    89  8.8000000000000D-01  1.0129807069150D+00  4.2115537479380D-01
    90  8.9000000000000D-01  1.0075683879106D+00  4.0061176348336D-01
    91  9.0000000000000D-01  1.0031111915641D+00  3.7635804465514D-01
    92  9.1000000000000D-01  9.9936851625245D-01  3.4901606862727D-01
    93  9.2000000000000D-01  9.9606722956199D-01  3.1928657206161D-01
    94  9.3000000000000D-01  9.9290617788837D-01  2.8793828727137D-01
    95  9.4000000000000D-01  9.8956124852614D-01  2.5579573699210D-01
    96  9.5000000000000D-01  9.8569090712447D-01  2.2372589958730D-01
    97  9.6000000000000D-01  9.8094212481113D-01  1.9262395004210D-01
    98  9.7000000000000D-01  9.7495660202806D-01  1.6339829933187D-01
    99  9.8000000000000D-01  9.6737719028066D-01  1.3695516859386D-01
   100  9.9000000000000D-01  9.5785440881231D-01  1.1418294443271D-01
   101  1.0000000000000D+00  9.4605295043573D-01  9.5936568212288D-02
   102  1.0100000000000D+00  9.3165806989957D-01  8.3022214114933D-02
   103  1.0200000000000D+00  9.1438174887599D-01  7.6182508947192D-02
   104  1.0300000000000D+00  8.9396853409342D-01  7.6082540738097D-02
   105  1.0400000000000D+00  8.7020094940063D-01  8.3296892890291D-02
   106  1.0500000000000D+00  8.4290438823122D-01  9.8297926972939D-02
   107  1.0600000000000D+00  8.1195140007999D-01  1.2144552009067D-01
   108  1.0700000000000D+00  7.7726529383405D-01  1.5297844062497D-01
   109  1.0800000000000D+00  7.3882299043698D-01  1.9300752305432D-01
   110  1.0900000000000D+00  6.9665706918005D-01  2.4151077426460D-01
   111  1.1000000000000D+00  6.5085696352154D-01  2.9833051598097D-01
   112  1.1100000000000D+00  6.0156927543443D-01  3.6317263661099D-01
   113  1.1200000000000D+00  5.4899719173816D-01  4.3560799122128D-01
   114  1.1300000000000D+00  4.9339899919915D-01  5.1507595650540D-01
   115  1.1400000000000D+00  4.3508571006871D-01  6.0089011203240D-01
   116  1.1500000000000D+00  3.7441782185683D-01  6.9224599008052D-01
   117  1.1600000000000D+00  3.1180125234075D-01  7.8823079528179D-01
   118  1.1700000000000D+00  2.4768250211178D-01  8.8783496831630D-01
   119  1.1800000000000D+00  1.8254310948120D-01  9.8996543801775D-01
   120  1.1900000000000D+00  1.1689347443124D-01  1.0934603779377D+00
   121  1.2000000000000D+00  5.1266140468522D-02  1.1971052543941D+00
   122  1.2100000000000D+00 -1.3791368564682D-02  1.2996499335031D+00
   123  1.2200000000000D+00 -7.7724053815654D-02  1.3998266007447D+00
   124  1.2300000000000D+00 -1.3997717512824D-01  1.4963682207986D+00
   125  1.2400000000000D+00 -2.0000409842936D-01  1.5880272631853D+00
   126  1.2500000000000D+00 -2.5727413864220D-01  1.6735944110517D+00
   127  1.2600000000000D+00 -3.1128027686312D-01  1.7519169631130D+00
   128  1.2700000000000D+00 -3.6154663450845D-01  1.8219166483407D+00
   129  1.2800000000000D+00 -4.0763558784581D-01  1.8826065747137D+00
   130  1.2900000000000D+00 -4.4915440916416D-01  1.9331070402406D+00
   131  1.3000000000000D+00 -4.8576133356801D-01  1.9726599649893D+00
   132  1.3100000000000D+00 -5.1717095025982D-01  2.0006417025763D+00
   133  1.3200000000000D+00 -5.4315882904769D-01  2.0165740180609D+00
   134  1.3300000000000D+00 -5.6356531364289D-01  2.0201330690445D+00
   135  1.3400000000000D+00 -5.7829840512198D-01  2.0111562071820D+00
   136  1.3500000000000D+00 -5.8733569008021D-01  1.9896464919074D+00
   137  1.3600000000000D+00 -5.9072528409091D-01  1.9557748466346D+00
   138  1.3700000000000D+00 -5.8858574683965D-01  1.9098797536465D+00
   139  1.3800000000000D+00 -5.8110498492506D-01  1.8524645265110D+00
   140  1.3900000000000D+00 -5.6853813786574D-01  1.7841921499188D+00
   141  1.4000000000000D+00 -5.5120446570262D-01  1.7058777315243D+00
   142  1.4100000000000D+00 -5.2948329858193D-01  1.6184787107424D+00
   143  1.4200000000000D+00 -5.0380907079482D-01  1.5230828788499D+00
   144  1.4300000000000D+00 -4.7466553371869D-01  1.4208944367704D+00
   145  1.4400000000000D+00 -4.4257921367041D-01  1.3132182489301D+00
   146  1.4500000000000D+00 -4.0811220306763D-01  1.2014425051176D+00
   147  1.4600000000000D+00 -3.7185440438560D-01  1.0870200764844D+00
   148  1.4700000000000D+00 -3.3441531216694D-01  9.7144877013361D-01
   149  1.4800000000000D+00 -2.9641547645255D-01  8.5625082544339D-01
   150  1.4900000000000D+00 -2.5847775147596D-01  7.4295190092171D-01
   151  1.5000000000000D+00 -2.2121847004375D-01  6.3305988771002D-01
   152  1.5100000000000D+00 -1.8523866062289D-01  5.2804382986216D-01
   153  1.5200000000000D+00 -1.5111545057917D-01  4.2931329479709D-01
   154  1.5300000000000D+00 -1.1939375762896D-01  3.3819843808102D-01
   155  1.5400000000000D+00 -9.0578425873967D-02  2.5593113688438D-01
   156  1.5500000000000D+00 -6.5136145191696D-02  1.8365337976804D-01
   157  1.5600000000000D+00 -4.3458169166611D-02  1.2231532679939D-01
   158  1.5700000000000D+00 -2.5793296734553D-02  7.2490000189442D-02
   159  1.5800000000000D+00 -1.2596641872423D-02  3.5352895817802D-02
   160  1.5900000000000D+00 -4.3753693371641D-03  1.2250227578988D-02
   161  1.6000000000000D+00 -5.3519701719951D-04  1.4719253223020D-03
   162  1.6100000000000D+00  4.2461591945890D-04 -1.2085188313517D-03
   163  1.6200000000000D+00  1.0752811420119D-04 -3.0410589231638D-04
   164  1.6300000000000D+00 -1.3208036179626D-04  3.7327699091871D-04
   165  1.6400000000000D+00 -3.2269985600539D-05  9.1114848140771D-05
   166  1.6500000000000D+00  2.3743302108890D-05 -6.7319512052286D-05
   167  1.6600000000000D+00  5.1478253476701D-06 -1.4587511302062D-05
   168  1.6700000000000D+00  5.0785519448587D-08 -6.5272382139510D-08
   169  1.6800000000000D+00  1.0356154849903D-08 -1.3310307823929D-08
   170  1.6900000000000D+00  0.0000000000000D+00  0.0000000000000D+00
   171  1.7000000000000D+00  0.0000000000000D+00  0.0000000000000D+00
   172  1.7100000000000D+00  0.0000000000000D+00  0.0000000000000D+00
   173  1.7200000000000D+00  0.0000000000000D+00  0.0000000000000D+00
   174  1.7300000000000D+00  0.0000000000000D+00  0.0000000000000D+00
   175  1.7400000000000D+00  0.0000000000000D+00  0.0000000000000D+00
   176  1.7500000000000D+00  0.0000000000000D+00  0.0000000000000D+00
   177  1.7600000000000D+00  0.0000000000000D+00  0.0000000000000D+00
   178  1.7700000000000D+00  0.0000000000000D+00  0.0000000000000D+00
   179  1.7800000000000D+00  0.0000000000000D+00  0.0000000000000D+00
   180  1.7900000000000D+00  0.0000000000000D+00  0.0000000000000D+00
   181  1.8000000000000D+00  0.0000000000000D+00  0.0000000000000D+00
   182  1.8100000000000D+00  0.0000000000000D+00  0.0000000000000D+00
   183  1.8200000000000D+00  0.0000000000000D+00  0.0000000000000D+00
   184  1.8300000000000D+00  0.0000000000000D+00  0.0000000000000D+00
   185  1.8400000000000D+00  0.0000000000000D+00  0.0000000000000D+00
   186  1.8500000000000D+00  0.0000000000000D+00  0.0000000000000D+00
   187  1.8600000000000D+00  0.0000000000000D+00  0.0000000000000D+00
   188  1.8700000000000D+00  0.0000000000000D+00  0.0000000000000D+00
   189  1.8800000000000D+00  0.0000000000000D+00  0.0000000000000D+00
   190  1.8900000000000D+00  0.0000000000000D+00  0.0000000000000D+00
   191  1.9000000000000D+00  0.0000000000000D+00  0.0000000000000D+00
   192  1.9100000000000D+00  0.0000000000000D+00  0.0000000000000D+00
   193  1.9200000000000D+00  0.0000000000000D+00  0.0000000000000D+00
   194  1.9300000000000D+00  0.0000000000000D+00  0.0000000000000D+00
   195  1.9400000000000D+00  0.0000000000000D+00  0.0000000000000D+00
   196  1.9500000000000D+00  0.0000000000000D+00  0.0000000000000D+00
   197  1.9600000000000D+00  0.0000000000000D+00  0.0000000000000D+00
   198  1.9700000000000D+00  0.0000000000000D+00  0.0000000000000D+00
   199  1.9800000000000D+00  0.0000000000000D+00  0.0000000000000D+00
   200  1.9900000000000D+00  0.0000000000000D+00  0.0000000000000D+00
   201  2.0000000000000D+00  0.0000000000000D+00  0.0000000000000D+00
   202  2.0100000000000D+00  0.0000000000000D+00  0.0000000000000D+00
   203  2.0200000000000D+00  0.0000000000000D+00  0.0000000000000D+00
   204  2.0300000000000D+00  0.0000000000000D+00  0.0000000000000D+00
   205  2.0400000000000D+00  0.0000000000000D+00  0.0000000000000D+00
   206  2.0500000000000D+00  0.0000000000000D+00  0.0000000000000D+00
   207  2.0600000000000D+00  0.0000000000000D+00  0.0000000000000D+00
   208  2.0700000000000D+00  0.0000000000000D+00  0.0000000000000D+00
   209  2.0800000000000D+00  0.0000000000000D+00  0.0000000000000D+00
   210  2.0900000000000D+00  0.0000000000000D+00  0.0000000000000D+00
   211  2.1000000000000D+00  0.0000000000000D+00  0.0000000000000D+00
   212  2.1100000000000D+00  0.0000000000000D+00  0.0000000000000D+00
   213  2.1200000000000D+00  0.0000000000000D+00  0.0000000000000D+00
   214  2.1300000000000D+00  0.0000000000000D+00  0.0000000000000D+00
   215  2.1400000000000D+00  0.0000000000000D+00  0.0000000000000D+00
   216  2.1500000000000D+00  0.0000000000000D+00  0.0000000000000D+00
   217  2.1600000000000D+00  0.0000000000000D+00  0.0000000000000D+00
   218  2.1700000000000D+00  0.0000000000000D+00  0.0000000000000D+00
   219  2.1800000000000D+00  0.0000000000000D+00  0.0000000000000D+00
   220  2.1900000000000D+00  0.0000000000000D+00  0.0000000000000D+00
   221  2.2000000000000D+00  0.0000000000000D+00  0.0000000000000D+00
   222  2.2100000000000D+00  0.0000000000000D+00  0.0000000000000D+00
   223  2.2200000000000D+00  0.0000000000000D+00  0.0000000000000D+00
   224  2.2300000000000D+00  0.0000000000000D+00  0.0000000000000D+00
   225  2.2400000000000D+00  0.0000000000000D+00  0.0000000000000D+00
   226  2.2500000000000D+00  0.0000000000000D+00  0.0000000000000D+00
   227  2.2600000000000D+00  0.0000000000000D+00  0.0000000000000D+00
   228  2.2700000000000D+00  0.0000000000000D+00  0.0000000000000D+00
   229  2.2800000000000D+00  0.0000000000000D+00  0.0000000000000D+00
   230  2.2900000000000D+00  0.0000000000000D+00  0.0000000000000D+00
   231  2.3000000000000D+00  0.0000000000000D+00  0.0000000000000D+00
   232  2.3100000000000D+00  0.0000000000000D+00  0.0000000000000D+00
   233  2.3200000000000D+00  0.0000000000000D+00  0.0000000000000D+00
   234  2.3300000000000D+00  0.0000000000000D+00  0.0000000000000D+00
   235  2.3400000000000D+00  0.0000000000000D+00  0.0000000000000D+00
   236  2.3500000000000D+00  0.0000000000000D+00  0.0000000000000D+00
   237  2.3600000000000D+00  0.0000000000000D+00  0.0000000000000D+00
   238  2.3700000000000D+00  0.0000000000000D+00  0.0000000000000D+00
   239  2.3800000000000D+00  0.0000000000000D+00  0.0000000000000D+00
   240  2.3900000000000D+00  0.0000000000000D+00  0.0000000000000D+00
   241  2.4000000000000D+00  0.0000000000000D+00  0.0000000000000D+00
   242  2.4100000000000D+00  0.0000000000000D+00  0.0000000000000D+00
   243  2.4200000000000D+00  0.0000000000000D+00  0.0000000000000D+00
   244  2.4300000000000D+00  0.0000000000000D+00  0.0000000000000D+00
   245  2.4400000000000D+00  0.0000000000000D+00  0.0000000000000D+00
   246  2.4500000000000D+00  0.0000000000000D+00  0.0000000000000D+00
   247  2.4600000000000D+00  0.0000000000000D+00  0.0000000000000D+00
   248  2.4700000000000D+00  0.0000000000000D+00  0.0000000000000D+00
   249  2.4800000000000D+00  0.0000000000000D+00  0.0000000000000D+00
   250  2.4900000000000D+00  0.0000000000000D+00  0.0000000000000D+00
   251  2.5000000000000D+00  0.0000000000000D+00  0.0000000000000D+00
   252  2.5100000000000D+00  0.0000000000000D+00  0.0000000000000D+00
   253  2.5200000000000D+00  0.0000000000000D+00  0.0000000000000D+00
   254  2.5300000000000D+00  0.0000000000000D+00  0.0000000000000D+00
   255  2.5400000000000D+00  0.0000000000000D+00  0.0000000000000D+00
   256  2.5500000000000D+00  0.0000000000000D+00  0.0000000000000D+00
   257  2.5600000000000D+00  0.0000000000000D+00  0.0000000000000D+00
   258  2.5700000000000D+00  0.0000000000000D+00  0.0000000000000D+00
   259  2.5800000000000D+00  0.0000000000000D+00  0.0000000000000D+00
   260  2.5900000000000D+00  0.0000000000000D+00  0.0000000000000D+00
   261  2.6000000000000D+00  0.0000000000000D+00  0.0000000000000D+00
   262  2.6100000000000D+00  0.0000000000000D+00  0.0000000000000D+00
   263  2.6200000000000D+00  0.0000000000000D+00  0.0000000000000D+00
   264  2.6300000000000D+00  0.0000000000000D+00  0.0000000000000D+00
   265  2.6400000000000D+00  0.0000000000000D+00  0.0000000000000D+00
   266  2.6500000000000D+00  0.0000000000000D+00  0.0000000000000D+00
   267  2.6600000000000D+00  0.0000000000000D+00  0.0000000000000D+00
   268  2.6700000000000D+00  0.0000000000000D+00  0.0000000000000D+00
   269  2.6800000000000D+00  0.0000000000000D+00  0.0000000000000D+00
   270  2.6900000000000D+00  0.0000000000000D+00  0.0000000000000D+00
   271  2.7000000000000D+00  0.0000000000000D+00  0.0000000000000D+00
   272  2.7100000000000D+00  0.0000000000000D+00  0.0000000000000D+00
   273  2.7200000000000D+00  0.0000000000000D+00  0.0000000000000D+00
   274  2.7300000000000D+00  0.0000000000000D+00  0.0000000000000D+00
   275  2.7400000000000D+00  0.0000000000000D+00  0.0000000000000D+00
   276  2.7500000000000D+00  0.0000000000000D+00  0.0000000000000D+00
   277  2.7600000000000D+00  0.0000000000000D+00  0.0000000000000D+00
   278  2.7700000000000D+00  0.0000000000000D+00  0.0000000000000D+00
   279  2.7800000000000D+00  0.0000000000000D+00  0.0000000000000D+00
   280  2.7900000000000D+00  0.0000000000000D+00  0.0000000000000D+00
   281  2.8000000000000D+00  0.0000000000000D+00  0.0000000000000D+00
   282  2.8100000000000D+00  0.0000000000000D+00  0.0000000000000D+00
   283  2.8200000000000D+00  0.0000000000000D+00  0.0000000000000D+00
   284  2.8300000000000D+00  0.0000000000000D+00  0.0000000000000D+00
   285  2.8400000000000D+00  0.0000000000000D+00  0.0000000000000D+00
   286  2.8500000000000D+00  0.0000000000000D+00  0.0000000000000D+00
   287  2.8600000000000D+00  0.0000000000000D+00  0.0000000000000D+00
   288  2.8700000000000D+00  0.0000000000000D+00  0.0000000000000D+00
   289  2.8800000000000D+00  0.0000000000000D+00  0.0000000000000D+00
   290  2.8900000000000D+00  0.0000000000000D+00  0.0000000000000D+00
   291  2.9000000000000D+00  0.0000000000000D+00  0.0000000000000D+00
   292  2.9100000000000D+00  0.0000000000000D+00  0.0000000000000D+00
   293  2.9200000000000D+00  0.0000000000000D+00  0.0000000000000D+00
   294  2.9300000000000D+00  0.0000000000000D+00  0.0000000000000D+00
   295  2.9400000000000D+00  0.0000000000000D+00  0.0000000000000D+00
   296  2.9500000000000D+00  0.0000000000000D+00  0.0000000000000D+00
   297  2.9600000000000D+00  0.0000000000000D+00  0.0000000000000D+00
   298  2.9700000000000D+00  0.0000000000000D+00  0.0000000000000D+00
   299  2.9800000000000D+00  0.0000000000000D+00  0.0000000000000D+00
   300  2.9900000000000D+00  0.0000000000000D+00  0.0000000000000D+00
   301  3.0000000000000D+00  0.0000000000000D+00  0.0000000000000D+00
   302  3.0100000000000D+00  0.0000000000000D+00  0.0000000000000D+00
   303  3.0200000000000D+00  0.0000000000000D+00  0.0000000000000D+00
   304  3.0300000000000D+00  0.0000000000000D+00  0.0000000000000D+00
   305  3.0400000000000D+00  0.0000000000000D+00  0.0000000000000D+00
   306  3.0500000000000D+00  0.0000000000000D+00  0.0000000000000D+00
   307  3.0600000000000D+00  0.0000000000000D+00  0.0000000000000D+00
   308  3.0700000000000D+00  0.0000000000000D+00  0.0000000000000D+00
   309  3.0800000000000D+00  0.0000000000000D+00  0.0000000000000D+00
   310  3.0900000000000D+00  0.0000000000000D+00  0.0000000000000D+00
   311  3.1000000000000D+00  0.0000000000000D+00  0.0000000000000D+00
   312  3.1100000000000D+00  0.0000000000000D+00  0.0000000000000D+00
   313  3.1200000000000D+00  0.0000000000000D+00  0.0000000000000D+00
   314  3.1300000000000D+00  0.0000000000000D+00  0.0000000000000D+00
   315  3.1400000000000D+00  0.0000000000000D+00  0.0000000000000D+00
   316  3.1500000000000D+00  0.0000000000000D+00  0.0000000000000D+00
   317  3.1600000000000D+00  0.0000000000000D+00  0.0000000000000D+00
   318  3.1700000000000D+00  0.0000000000000D+00  0.0000000000000D+00
   319  3.1800000000000D+00  0.0000000000000D+00  0.0000000000000D+00
   320  3.1900000000000D+00  0.0000000000000D+00  0.0000000000000D+00
   321  3.2000000000000D+00  0.0000000000000D+00  0.0000000000000D+00
   322  3.2100000000000D+00  0.0000000000000D+00  0.0000000000000D+00
   323  3.2200000000000D+00  0.0000000000000D+00  0.0000000000000D+00
   324  3.2300000000000D+00  0.0000000000000D+00  0.0000000000000D+00
   325  3.2400000000000D+00  0.0000000000000D+00  0.0000000000000D+00
   326  3.2500000000000D+00  0.0000000000000D+00  0.0000000000000D+00
   327  3.2600000000000D+00  0.0000000000000D+00  0.0000000000000D+00
   328  3.2700000000000D+00  0.0000000000000D+00  0.0000000000000D+00
   329  3.2800000000000D+00  0.0000000000000D+00  0.0000000000000D+00
   330  3.2900000000000D+00  0.0000000000000D+00  0.0000000000000D+00
   331  3.3000000000000D+00  0.0000000000000D+00  0.0000000000000D+00
   332  3.3100000000000D+00  0.0000000000000D+00  0.0000000000000D+00
   333  3.3200000000000D+00  0.0000000000000D+00  0.0000000000000D+00
   334  3.3300000000000D+00  0.0000000000000D+00  0.0000000000000D+00
   335  3.3400000000000D+00  0.0000000000000D+00  0.0000000000000D+00
   336  3.3500000000000D+00  0.0000000000000D+00  0.0000000000000D+00
   337  3.3600000000000D+00  0.0000000000000D+00  0.0000000000000D+00
   338  3.3700000000000D+00  0.0000000000000D+00  0.0000000000000D+00
   339  3.3800000000000D+00  0.0000000000000D+00  0.0000000000000D+00
   340  3.3900000000000D+00  0.0000000000000D+00  0.0000000000000D+00
   341  3.4000000000000D+00  0.0000000000000D+00  0.0000000000000D+00
   342  3.4100000000000D+00  0.0000000000000D+00  0.0000000000000D+00
   343  3.4200000000000D+00  0.0000000000000D+00  0.0000000000000D+00
   344  3.4300000000000D+00  0.0000000000000D+00  0.0000000000000D+00
   345  3.4400000000000D+00  0.0000000000000D+00  0.0000000000000D+00
   346  3.4500000000000D+00  0.0000000000000D+00  0.0000000000000D+00
   347  3.4600000000000D+00  0.0000000000000D+00  0.0000000000000D+00
   348  3.4700000000000D+00  0.0000000000000D+00  0.0000000000000D+00
   349  3.4800000000000D+00  0.0000000000000D+00  0.0000000000000D+00
   350  3.4900000000000D+00  0.0000000000000D+00  0.0000000000000D+00
   351  3.5000000000000D+00  0.0000000000000D+00  0.0000000000000D+00
   352  3.5100000000000D+00  0.0000000000000D+00  0.0000000000000D+00
   353  3.5200000000000D+00  0.0000000000000D+00  0.0000000000000D+00
   354  3.5300000000000D+00  0.0000000000000D+00  0.0000000000000D+00
   355  3.5400000000000D+00  0.0000000000000D+00  0.0000000000000D+00
   356  3.5500000000000D+00  0.0000000000000D+00  0.0000000000000D+00
   357  3.5600000000000D+00  0.0000000000000D+00  0.0000000000000D+00
   358  3.5700000000000D+00  0.0000000000000D+00  0.0000000000000D+00
   359  3.5800000000000D+00  0.0000000000000D+00  0.0000000000000D+00
   360  3.5900000000000D+00  0.0000000000000D+00  0.0000000000000D+00
   361  3.6000000000000D+00  0.0000000000000D+00  0.0000000000000D+00
   362  3.6100000000000D+00  0.0000000000000D+00  0.0000000000000D+00
   363  3.6200000000000D+00  0.0000000000000D+00  0.0000000000000D+00
   364  3.6300000000000D+00  0.0000000000000D+00  0.0000000000000D+00
   365  3.6400000000000D+00  0.0000000000000D+00  0.0000000000000D+00
   366  3.6500000000000D+00  0.0000000000000D+00  0.0000000000000D+00
   367  3.6600000000000D+00  0.0000000000000D+00  0.0000000000000D+00
   368  3.6700000000000D+00  0.0000000000000D+00  0.0000000000000D+00
   369  3.6800000000000D+00  0.0000000000000D+00  0.0000000000000D+00
   370  3.6900000000000D+00  0.0000000000000D+00  0.0000000000000D+00
   371  3.7000000000000D+00  0.0000000000000D+00  0.0000000000000D+00
   372  3.7100000000000D+00  0.0000000000000D+00  0.0000000000000D+00
   373  3.7200000000000D+00  0.0000000000000D+00  0.0000000000000D+00
   374  3.7300000000000D+00  0.0000000000000D+00  0.0000000000000D+00
   375  3.7400000000000D+00  0.0000000000000D+00  0.0000000000000D+00
   376  3.7500000000000D+00  0.0000000000000D+00  0.0000000000000D+00
   377  3.7600000000000D+00  0.0000000000000D+00  0.0000000000000D+00
   378  3.7700000000000D+00  0.0000000000000D+00  0.0000000000000D+00
   379  3.7800000000000D+00  0.0000000000000D+00  0.0000000000000D+00
   380  3.7900000000000D+00  0.0000000000000D+00  0.0000000000000D+00
   381  3.8000000000000D+00  0.0000000000000D+00  0.0000000000000D+00
   382  3.8100000000000D+00  0.0000000000000D+00  0.0000000000000D+00
   383  3.8200000000000D+00  0.0000000000000D+00  0.0000000000000D+00
   384  3.8300000000000D+00  0.0000000000000D+00  0.0000000000000D+00
   385  3.8400000000000D+00  0.0000000000000D+00  0.0000000000000D+00
   386  3.8500000000000D+00  0.0000000000000D+00  0.0000000000000D+00
   387  3.8600000000000D+00  0.0000000000000D+00  0.0000000000000D+00
   388  3.8700000000000D+00  0.0000000000000D+00  0.0000000000000D+00
   389  3.8800000000000D+00  0.0000000000000D+00  0.0000000000000D+00
   390  3.8900000000000D+00  0.0000000000000D+00  0.0000000000000D+00
   391  3.9000000000000D+00  0.0000000000000D+00  0.0000000000000D+00
   392  3.9100000000000D+00  0.0000000000000D+00  0.0000000000000D+00
   393  3.9200000000000D+00  0.0000000000000D+00  0.0000000000000D+00
   394  3.9300000000000D+00  0.0000000000000D+00  0.0000000000000D+00
   395  3.9400000000000D+00  0.0000000000000D+00  0.0000000000000D+00
   396  3.9500000000000D+00  0.0000000000000D+00  0.0000000000000D+00
   397  3.9600000000000D+00  0.0000000000000D+00  0.0000000000000D+00
   398  3.9700000000000D+00  0.0000000000000D+00  0.0000000000000D+00
   399  3.9800000000000D+00  0.0000000000000D+00  0.0000000000000D+00
   400  3.9900000000000D+00  0.0000000000000D+00  0.0000000000000D+00
   401  4.0000000000000D+00  0.0000000000000D+00  0.0000000000000D+00
   402  4.0100000000000D+00  0.0000000000000D+00  0.0000000000000D+00
   403  4.0200000000000D+00  0.0000000000000D+00  0.0000000000000D+00
   404  4.0300000000000D+00  0.0000000000000D+00  0.0000000000000D+00
   405  4.0400000000000D+00  0.0000000000000D+00  0.0000000000000D+00
   406  4.0500000000000D+00  0.0000000000000D+00  0.0000000000000D+00
   407  4.0600000000000D+00  0.0000000000000D+00  0.0000000000000D+00
   408  4.0700000000000D+00  0.0000000000000D+00  0.0000000000000D+00
   409  4.0800000000000D+00  0.0000000000000D+00  0.0000000000000D+00
   410  4.0900000000000D+00  0.0000000000000D+00  0.0000000000000D+00
   411  4.1000000000000D+00  0.0000000000000D+00  0.0000000000000D+00
   412  4.1100000000000D+00  0.0000000000000D+00  0.0000000000000D+00
   413  4.1200000000000D+00  0.0000000000000D+00  0.0000000000000D+00
   414  4.1300000000000D+00  0.0000000000000D+00  0.0000000000000D+00
   415  4.1400000000000D+00  0.0000000000000D+00  0.0000000000000D+00
   416  4.1500000000000D+00  0.0000000000000D+00  0.0000000000000D+00
   417  4.1600000000000D+00  0.0000000000000D+00  0.0000000000000D+00
   418  4.1700000000000D+00  0.0000000000000D+00  0.0000000000000D+00
   419  4.1800000000000D+00  0.0000000000000D+00  0.0000000000000D+00
   420  4.1900000000000D+00  0.0000000000000D+00  0.0000000000000D+00
   421  4.2000000000000D+00  0.0000000000000D+00  0.0000000000000D+00
   422  4.2100000000000D+00  0.0000000000000D+00  0.0000000000000D+00