Ti    ONCVPSP-3.2.3.1  r_core=   1.35825   1.31050   1.66360
22.0000     12.0000      170504    zatom,zion,pspd
8      11   2     4   600     0    pspcod,pspxc,lmax,lloc,mmax,r2well
5.99000000  2.50000000  0.00000000    rchrg fchrg qchrg
2     2     2     0     0    nproj
1     1           extension_switch
0                         1.1362348499083D+01  1.2636390777285D+00
1  0.0000000000000D+00 -1.6007617453795D-09  5.3542398847917D-09
2  1.0000000000000D-02  8.8821753433117D-02 -4.5944416931463D-02
3  2.0000000000000D-02  1.7734847913100D-01 -9.1422393908878D-02
4  3.0000000000000D-02  2.6528720135287D-01 -1.3597304519972D-01
5  4.0000000000000D-02  3.5234902208894D-01 -1.7914650852776D-01
6  5.0000000000000D-02  4.3825109469824D-01 -2.2050924572931D-01
7  6.0000000000000D-02  5.2271852043418D-01 -2.5964909400668D-01
8  7.0000000000000D-02  6.0548614406829D-01 -2.9617999104859D-01
9  8.0000000000000D-02  6.8630022642346D-01 -3.2974630264152D-01
10  9.0000000000000D-02  7.6491997357909D-01 -3.6002668792267D-01
11  1.0000000000000D-01  8.4111890478058D-01 -3.8673744501635D-01
12  1.1000000000000D-01  9.1468604363679D-01 -4.0963528832852D-01
13  1.2000000000000D-01  9.8542691998017D-01 -4.2851951810705D-01
14  1.3000000000000D-01  1.0531643727489D+00 -4.4323355285554D-01
15  1.4000000000000D-01  1.1177391473804D+00 -4.5366580565236D-01
16  1.5000000000000D-01  1.1790102844279D+00 -4.5974989619991D-01
17  1.6000000000000D-01  1.2368552993764D+00 -4.6146420133643D-01
18  1.7000000000000D-01  1.2911701568838D+00 -4.5883075760106D-01
19  1.8000000000000D-01  1.3418690458552D+00 -4.5191354007462D-01
20  1.9000000000000D-01  1.3888839648233D+00 -4.4081615194444D-01
21  2.0000000000000D-01  1.4321641300001D+00 -4.2567896889382D-01
22  2.1000000000000D-01  1.4716752210378D+00 -4.0667579133088D-01
23  2.2000000000000D-01  1.5073984819503D+00 -3.8401006549991D-01
24  2.3000000000000D-01  1.5393296967525D+00 -3.5791074152370D-01
25  2.4000000000000D-01  1.5674780611436D+00 -3.2862784228942D-01
26  2.5000000000000D-01  1.5918649729604D+00 -2.9642782171068D-01
27  2.6000000000000D-01  1.6125227651340D+00 -2.6158879419603D-01
28  2.7000000000000D-01  1.6294934054790D+00 -2.2439571906763D-01
29  2.8000000000000D-01  1.6428271878212D+00 -1.8513562416823D-01
30  2.9000000000000D-01  1.6525814387214D+00 -1.4409295195589D-01
31  3.0000000000000D-01  1.6588192633823D+00 -1.0154510902435D-01
32  3.1000000000000D-01  1.6616083532467D+00 -5.7758296237130D-02
33  3.2000000000000D-01  1.6610198763199D+00 -1.2983691582939D-02
34  3.3000000000000D-01  1.6571274694088D+00  3.2545948473640D-02
35  3.4000000000000D-01  1.6500063492868D+00  7.8619210853916D-02
36  3.5000000000000D-01  1.6397325573109D+00  1.2504842116035D-01
37  3.6000000000000D-01  1.6263823492715D+00  1.7167147202994D-01
38  3.7000000000000D-01  1.6100317392979D+00  2.1835305431048D-01
39  3.8000000000000D-01  1.5907562035146D+00  2.6498527153349D-01
40  3.9000000000000D-01  1.5686305459139D+00  3.1148762925840D-01
41  4.0000000000000D-01  1.5437289256117D+00  3.5780640216550D-01
42  4.1000000000000D-01  1.5161250413713D+00  4.0391339309509D-01
43  4.2000000000000D-01  1.4858924660412D+00  4.4980410936763D-01
44  4.3000000000000D-01  1.4531051204425D+00  4.9549539249086D-01
45  4.4000000000000D-01  1.4178378732900D+00  5.4102254757169D-01
46  4.5000000000000D-01  1.3801672510143D+00  5.8643602822966D-01
47  4.6000000000000D-01  1.3401722388973D+00  6.3179774138504D-01
48  4.7000000000000D-01  1.2979351528058D+00  6.7717704381319D-01
49  4.8000000000000D-01  1.2535425590329D+00  7.2264650868341D-01
50  4.9000000000000D-01  1.2070862183812D+00  7.6827754531159D-01
51  5.0000000000000D-01  1.1586640296598D+00  8.1413595895774D-01
52  5.1000000000000D-01  1.1083809472579D+00  8.6027753961514D-01
53  5.2000000000000D-01  1.0563498473993D+00  9.0674376931491D-01
54  5.3000000000000D-01  1.0026923180907D+00  9.5355773648513D-01
55  5.4000000000000D-01  9.4753934864796D-01  1.0007203433587D+00
56  5.5000000000000D-01  8.9103189601073D-01  1.0482068883354D+00
57  5.6000000000000D-01  8.3332130681633D-01  1.0959640996462D+00
58  5.7000000000000D-01  7.7456957638120D-01  1.1439076896859D+00
59  5.8000000000000D-01  7.1494942829204D-01  1.1919204911162D+00
60  5.9000000000000D-01  6.5464420120966D-01  1.2398512263801D+00
61  6.0000000000000D-01  5.9384753268025D-01  1.2875139518015D+00
62  6.1000000000000D-01  5.3276283319842D-01  1.3346882060698D+00
63  6.2000000000000D-01  4.7160254738852D-01  1.3811198809262D+00
64  6.3000000000000D-01  4.1058720295413D-01  1.4265228192871D+00
65  6.4000000000000D-01  3.4994425186320D-01  1.4705811333096D+00
66  6.5000000000000D-01  2.8990671209109D-01  1.5129522219890D+00
67  6.6000000000000D-01  2.3071162202540D-01  1.5532704551643D+00
68  6.7000000000000D-01  1.7259832328271D-01  1.5911514784878D+00
69  6.8000000000000D-01  1.1580659116813D-01  1.6261970820971D+00
70  6.9000000000000D-01  6.0574635220084D-02  1.6580005647583D+00
71  7.0000000000000D-01  7.1369951944489D-03  1.6861525152237D+00
72  7.1000000000000D-01 -4.4277639621206D-02  1.7102469237311D+00
73  7.2000000000000D-01 -9.3448657724762D-02  1.7298875289953D+00
74  7.3000000000000D-01 -1.4016576764157D-01  1.7446943000300D+00
75  7.4000000000000D-01 -1.8423122219073D-01  1.7543099476592D+00
76  7.5000000000000D-01 -2.2546199120550D-01  1.7584063578076D+00
77  7.6000000000000D-01 -2.6369184900259D-01  1.7566908376438D+00
78  7.7000000000000D-01 -2.9877334330986D-01  1.7489120664304D+00
79  7.8000000000000D-01 -3.3057961332950D-01  1.7348656455364D+00
80  7.9000000000000D-01 -3.5900602612175D-01  1.7143991464537D+00
81  8.0000000000000D-01 -3.8397160253283D-01  1.6874165617918D+00
82  8.1000000000000D-01 -4.0542020643053D-01  1.6538820720301D+00
83  8.2000000000000D-01 -4.2332147402129D-01  1.6138230501675D+00
84  8.3000000000000D-01 -4.3767146345980D-01  1.5673322372039D+00
85  8.4000000000000D-01 -4.4849300877767D-01  1.5145690334487D+00
86  8.5000000000000D-01 -4.5583576629529D-01  1.4557598638015D+00
87  8.6000000000000D-01 -4.5977594607831D-01  1.3911975891893D+00
88  8.7000000000000D-01 -4.6041572558940D-01  1.3212399510483D+00
89  8.8000000000000D-01 -4.5788234739659D-01  1.2463070508817D+00
90  8.9000000000000D-01 -4.5232690755636D-01  1.1668778822583D+00
91  9.0000000000000D-01 -4.4392284601759D-01  1.0834859479001D+00
92  9.1000000000000D-01 -4.3286415501414D-01  9.9671400948148D-01
93  9.2000000000000D-01 -4.1936332585448D-01  9.0718803218564D-01
94  9.3000000000000D-01 -4.0364905870200D-01  8.1557039969461D-01
95  9.4000000000000D-01 -3.8596376379937D-01  7.2255248788950D-01
96  9.5000000000000D-01 -3.6656088605848D-01  6.2884669689650D-01
97  9.6000000000000D-01 -3.4570208795267D-01  5.3517805102535D-01
98  9.7000000000000D-01 -3.2365432816897D-01  4.4227548447645D-01
99  9.8000000000000D-01 -3.0068687540489D-01  3.5086293710332D-01
100  9.9000000000000D-01 -2.7706829810918D-01  2.6165038928785D-01
101  1.0000000000000D+00 -2.5306347168616D-01  1.7532496750382D-01
102  1.0100000000000D+00 -2.2893064480472D-01  9.2542252727687D-02
103  1.0200000000000D+00 -2.0491860592373D-01  1.3917922327947D-02
104  1.0300000000000D+00 -1.8126398998525D-01 -5.9980147511503D-02
105  1.0400000000000D+00 -1.5818876329718D-01 -1.2863919784956D-01
106  1.0500000000000D+00 -1.3589792249676D-01 -1.9160820729120D-01
107  1.0600000000000D+00 -1.1457744014064D-01 -2.4850371296384D-01
108  1.0700000000000D+00 -9.4392486161238D-02 -2.9901473917699D-01
109  1.0800000000000D+00 -7.5485950387071D-02 -3.4290675373625D-01
110  1.0900000000000D+00 -5.7977286519172D-02 -3.8002458733390D-01
111  1.1000000000000D+00 -4.1961694060894D-02 -4.1029426396995D-01
112  1.1100000000000D+00 -2.7509648462230D-02 -4.3372371045740D-01
113  1.1200000000000D+00 -1.4666785269019D-02 -4.5040232749446D-01
114  1.1300000000000D+00 -3.4541379890218D-03 -4.6049942441457D-01
115  1.1400000000000D+00  6.1312752090171D-03 -4.6426153457575D-01
116  1.1500000000000D+00  1.4115527106653D-02 -4.6200864859011D-01
117  1.1600000000000D+00  2.0546535492620D-02 -4.5412941874732D-01
118  1.1700000000000D+00  2.5492517241407D-02 -4.4107540559593D-01
119  1.1800000000000D+00  2.9040167557908D-02 -4.2335444919715D-01
120  1.1900000000000D+00  3.1292595647428D-02 -4.0152326736833D-01
121  1.2000000000000D+00  3.2367051134311D-02 -3.7617939315768D-01
122  1.2100000000000D+00  3.2392479001853D-02 -3.4795257495983D-01
123  1.2200000000000D+00  3.1506943682809D-02 -3.1749577193469D-01
124  1.2300000000000D+00  2.9854966031869D-02 -2.8547588742995D-01
125  1.2400000000000D+00  2.7584817481316D-02 -2.5256438492817D-01
126  1.2500000000000D+00  2.4845817170918D-02 -2.1942793587018D-01
127  1.2600000000000D+00  2.1785678554496D-02 -1.8671925095702D-01
128  1.2700000000000D+00  1.8547952862131D-02 -1.5506825042928D-01
129  1.2800000000000D+00  1.5269597029900D-02 -1.2507365649976D-01
130  1.2900000000000D+00  1.2078774180769D-02 -9.7295384187038D-02
131  1.3000000000000D+00  9.0926574842650D-03 -7.2246890118567D-02
132  1.3100000000000D+00  6.4162200589598D-03 -5.0391013580963D-02
133  1.3200000000000D+00  4.1414962478103D-03 -3.2143856368508D-02
134  1.3300000000000D+00  2.3282190586388D-03 -1.7748962666520D-02
135  1.3400000000000D+00  1.0481478142383D-03 -7.6003263404628D-03
136  1.3500000000000D+00  3.6800400480831D-04 -2.1082529354260D-03
137  1.3600000000000D+00  1.0709342718811D-04 -1.4958255747368D-04
138  1.3700000000000D+00  1.4957309286130D-05  8.4448035138845D-05
139  1.3800000000000D+00 -3.6721967538817D-06 -4.9616549351333D-05
140  1.3900000000000D+00 -3.6497706060119D-07 -9.8721777351671D-06
141  1.4000000000000D+00  1.2087717774629D-06  8.2819847573546D-06
142  1.4100000000000D+00 -1.8101042488285D-07  4.2870277776495D-07
143  1.4200000000000D+00 -2.8151645194846D-07  6.6673996823635D-07
144  1.4300000000000D+00  0.0000000000000D+00  0.0000000000000D+00
145  1.4400000000000D+00  0.0000000000000D+00  0.0000000000000D+00
146  1.4500000000000D+00  0.0000000000000D+00  0.0000000000000D+00
147  1.4600000000000D+00  0.0000000000000D+00  0.0000000000000D+00
148  1.4700000000000D+00  0.0000000000000D+00  0.0000000000000D+00
149  1.4800000000000D+00  0.0000000000000D+00  0.0000000000000D+00
150  1.4900000000000D+00  0.0000000000000D+00  0.0000000000000D+00
151  1.5000000000000D+00  0.0000000000000D+00  0.0000000000000D+00
152  1.5100000000000D+00  0.0000000000000D+00  0.0000000000000D+00
153  1.5200000000000D+00  0.0000000000000D+00  0.0000000000000D+00
154  1.5300000000000D+00  0.0000000000000D+00  0.0000000000000D+00
155  1.5400000000000D+00  0.0000000000000D+00  0.0000000000000D+00
156  1.5500000000000D+00  0.0000000000000D+00  0.0000000000000D+00
157  1.5600000000000D+00  0.0000000000000D+00  0.0000000000000D+00
158  1.5700000000000D+00  0.0000000000000D+00  0.0000000000000D+00
159  1.5800000000000D+00  0.0000000000000D+00  0.0000000000000D+00
160  1.5900000000000D+00  0.0000000000000D+00  0.0000000000000D+00
161  1.6000000000000D+00  0.0000000000000D+00  0.0000000000000D+00
162  1.6100000000000D+00  0.0000000000000D+00  0.0000000000000D+00
163  1.6200000000000D+00  0.0000000000000D+00  0.0000000000000D+00
164  1.6300000000000D+00  0.0000000000000D+00  0.0000000000000D+00
165  1.6400000000000D+00  0.0000000000000D+00  0.0000000000000D+00
166  1.6500000000000D+00  0.0000000000000D+00  0.0000000000000D+00
167  1.6600000000000D+00  0.0000000000000D+00  0.0000000000000D+00
168  1.6700000000000D+00  0.0000000000000D+00  0.0000000000000D+00
169  1.6800000000000D+00  0.0000000000000D+00  0.0000000000000D+00
170  1.6900000000000D+00  0.0000000000000D+00  0.0000000000000D+00
171  1.7000000000000D+00  0.0000000000000D+00  0.0000000000000D+00
172  1.7100000000000D+00  0.0000000000000D+00  0.0000000000000D+00
173  1.7200000000000D+00  0.0000000000000D+00  0.0000000000000D+00
174  1.7300000000000D+00  0.0000000000000D+00  0.0000000000000D+00
175  1.7400000000000D+00  0.0000000000000D+00  0.0000000000000D+00
176  1.7500000000000D+00  0.0000000000000D+00  0.0000000000000D+00
177  1.7600000000000D+00  0.0000000000000D+00  0.0000000000000D+00
178  1.7700000000000D+00  0.0000000000000D+00  0.0000000000000D+00
179  1.7800000000000D+00  0.0000000000000D+00  0.0000000000000D+00
180  1.7900000000000D+00  0.0000000000000D+00  0.0000000000000D+00
181  1.8000000000000D+00  0.0000000000000D+00  0.0000000000000D+00
182  1.8100000000000D+00  0.0000000000000D+00  0.0000000000000D+00
183  1.8200000000000D+00  0.0000000000000D+00  0.0000000000000D+00
184  1.8300000000000D+00  0.0000000000000D+00  0.0000000000000D+00
185  1.8400000000000D+00  0.0000000000000D+00  0.0000000000000D+00
186  1.8500000000000D+00  0.0000000000000D+00  0.0000000000000D+00
187  1.8600000000000D+00  0.0000000000000D+00  0.0000000000000D+00
188  1.8700000000000D+00  0.0000000000000D+00  0.0000000000000D+00
189  1.8800000000000D+00  0.0000000000000D+00  0.0000000000000D+00
190  1.8900000000000D+00  0.0000000000000D+00  0.0000000000000D+00
191  1.9000000000000D+00  0.0000000000000D+00  0.0000000000000D+00
192  1.9100000000000D+00  0.0000000000000D+00  0.0000000000000D+00
193  1.9200000000000D+00  0.0000000000000D+00  0.0000000000000D+00
194  1.9300000000000D+00  0.0000000000000D+00  0.0000000000000D+00
195  1.9400000000000D+00  0.0000000000000D+00  0.0000000000000D+00
196  1.9500000000000D+00  0.0000000000000D+00  0.0000000000000D+00
197  1.9600000000000D+00  0.0000000000000D+00  0.0000000000000D+00
198  1.9700000000000D+00  0.0000000000000D+00  0.0000000000000D+00
199  1.9800000000000D+00  0.0000000000000D+00  0.0000000000000D+00
200  1.9900000000000D+00  0.0000000000000D+00  0.0000000000000D+00
201  2.0000000000000D+00  0.0000000000000D+00  0.0000000000000D+00
202  2.0100000000000D+00  0.0000000000000D+00  0.0000000000000D+00
203  2.0200000000000D+00  0.0000000000000D+00  0.0000000000000D+00
204  2.0300000000000D+00  0.0000000000000D+00  0.0000000000000D+00
205  2.0400000000000D+00  0.0000000000000D+00  0.0000000000000D+00
206  2.0500000000000D+00  0.0000000000000D+00  0.0000000000000D+00
207  2.0600000000000D+00  0.0000000000000D+00  0.0000000000000D+00
208  2.0700000000000D+00  0.0000000000000D+00  0.0000000000000D+00
209  2.0800000000000D+00  0.0000000000000D+00  0.0000000000000D+00
210  2.0900000000000D+00  0.0000000000000D+00  0.0000000000000D+00
211  2.1000000000000D+00  0.0000000000000D+00  0.0000000000000D+00
212  2.1100000000000D+00  0.0000000000000D+00  0.0000000000000D+00
213  2.1200000000000D+00  0.0000000000000D+00  0.0000000000000D+00
214  2.1300000000000D+00  0.0000000000000D+00  0.0000000000000D+00
215  2.1400000000000D+00  0.0000000000000D+00  0.0000000000000D+00
216  2.1500000000000D+00  0.0000000000000D+00  0.0000000000000D+00
217  2.1600000000000D+00  0.0000000000000D+00  0.0000000000000D+00
218  2.1700000000000D+00  0.0000000000000D+00  0.0000000000000D+00
219  2.1800000000000D+00  0.0000000000000D+00  0.0000000000000D+00
220  2.1900000000000D+00  0.0000000000000D+00  0.0000000000000D+00
221  2.2000000000000D+00  0.0000000000000D+00  0.0000000000000D+00
222  2.2100000000000D+00  0.0000000000000D+00  0.0000000000000D+00
223  2.2200000000000D+00  0.0000000000000D+00  0.0000000000000D+00
224  2.2300000000000D+00  0.0000000000000D+00  0.0000000000000D+00
225  2.2400000000000D+00  0.0000000000000D+00  0.0000000000000D+00
226  2.2500000000000D+00  0.0000000000000D+00  0.0000000000000D+00
227  2.2600000000000D+00  0.0000000000000D+00  0.0000000000000D+00
228  2.2700000000000D+00  0.0000000000000D+00  0.0000000000000D+00
229  2.2800000000000D+00  0.0000000000000D+00  0.0000000000000D+00
230  2.2900000000000D+00  0.0000000000000D+00  0.0000000000000D+00
231  2.3000000000000D+00  0.0000000000000D+00  0.0000000000000D+00
232  2.3100000000000D+00  0.0000000000000D+00  0.0000000000000D+00
233  2.3200000000000D+00  0.0000000000000D+00  0.0000000000000D+00
234  2.3300000000000D+00  0.0000000000000D+00  0.0000000000000D+00
235  2.3400000000000D+00  0.0000000000000D+00  0.0000000000000D+00
236  2.3500000000000D+00  0.0000000000000D+00  0.0000000000000D+00
237  2.3600000000000D+00  0.0000000000000D+00  0.0000000000000D+00
238  2.3700000000000D+00  0.0000000000000D+00  0.0000000000000D+00
239  2.3800000000000D+00  0.0000000000000D+00  0.0000000000000D+00
240  2.3900000000000D+00  0.0000000000000D+00  0.0000000000000D+00
241  2.4000000000000D+00  0.0000000000000D+00  0.0000000000000D+00
242  2.4100000000000D+00  0.0000000000000D+00  0.0000000000000D+00
243  2.4200000000000D+00  0.0000000000000D+00  0.0000000000000D+00
244  2.4300000000000D+00  0.0000000000000D+00  0.0000000000000D+00
245  2.4400000000000D+00  0.0000000000000D+00  0.0000000000000D+00
246  2.4500000000000D+00  0.0000000000000D+00  0.0000000000000D+00
247  2.4600000000000D+00  0.0000000000000D+00  0.0000000000000D+00
248  2.4700000000000D+00  0.0000000000000D+00  0.0000000000000D+00
249  2.4800000000000D+00  0.0000000000000D+00  0.0000000000000D+00
250  2.4900000000000D+00  0.0000000000000D+00  0.0000000000000D+00
251  2.5000000000000D+00  0.0000000000000D+00  0.0000000000000D+00
252  2.5100000000000D+00  0.0000000000000D+00  0.0000000000000D+00
253  2.5200000000000D+00  0.0000000000000D+00  0.0000000000000D+00
254  2.5300000000000D+00  0.0000000000000D+00  0.0000000000000D+00
255  2.5400000000000D+00  0.0000000000000D+00  0.0000000000000D+00
256  2.5500000000000D+00  0.0000000000000D+00  0.0000000000000D+00
257  2.5600000000000D+00  0.0000000000000D+00  0.0000000000000D+00
258  2.5700000000000D+00  0.0000000000000D+00  0.0000000000000D+00
259  2.5800000000000D+00  0.0000000000000D+00  0.0000000000000D+00
260  2.5900000000000D+00  0.0000000000000D+00  0.0000000000000D+00
261  2.6000000000000D+00  0.0000000000000D+00  0.0000000000000D+00
262  2.6100000000000D+00  0.0000000000000D+00  0.0000000000000D+00
263  2.6200000000000D+00  0.0000000000000D+00  0.0000000000000D+00
264  2.6300000000000D+00  0.0000000000000D+00  0.0000000000000D+00
265  2.6400000000000D+00  0.0000000000000D+00  0.0000000000000D+00
266  2.6500000000000D+00  0.0000000000000D+00  0.0000000000000D+00
267  2.6600000000000D+00  0.0000000000000D+00  0.0000000000000D+00
268  2.6700000000000D+00  0.0000000000000D+00  0.0000000000000D+00
269  2.6800000000000D+00  0.0000000000000D+00  0.0000000000000D+00
270  2.6900000000000D+00  0.0000000000000D+00  0.0000000000000D+00
271  2.7000000000000D+00  0.0000000000000D+00  0.0000000000000D+00
272  2.7100000000000D+00  0.0000000000000D+00  0.0000000000000D+00
273  2.7200000000000D+00  0.0000000000000D+00  0.0000000000000D+00
274  2.7300000000000D+00  0.0000000000000D+00  0.0000000000000D+00
275  2.7400000000000D+00  0.0000000000000D+00  0.0000000000000D+00
276  2.7500000000000D+00  0.0000000000000D+00  0.0000000000000D+00
277  2.7600000000000D+00  0.0000000000000D+00  0.0000000000000D+00
278  2.7700000000000D+00  0.0000000000000D+00  0.0000000000000D+00
279  2.7800000000000D+00  0.0000000000000D+00  0.0000000000000D+00
280  2.7900000000000D+00  0.0000000000000D+00  0.0000000000000D+00
281  2.8000000000000D+00  0.0000000000000D+00  0.0000000000000D+00
282  2.8100000000000D+00  0.0000000000000D+00  0.0000000000000D+00
283  2.8200000000000D+00  0.0000000000000D+00  0.0000000000000D+00
284  2.8300000000000D+00  0.0000000000000D+00  0.0000000000000D+00
285  2.8400000000000D+00  0.0000000000000D+00  0.0000000000000D+00
286  2.8500000000000D+00  0.0000000000000D+00  0.0000000000000D+00
287  2.8600000000000D+00  0.0000000000000D+00  0.0000000000000D+00
288  2.8700000000000D+00  0.0000000000000D+00  0.0000000000000D+00
289  2.8800000000000D+00  0.0000000000000D+00  0.0000000000000D+00
290  2.8900000000000D+00  0.0000000000000D+00  0.0000000000000D+00
291  2.9000000000000D+00  0.0000000000000D+00  0.0000000000000D+00
292  2.9100000000000D+00  0.0000000000000D+00  0.0000000000000D+00
293  2.9200000000000D+00  0.0000000000000D+00  0.0000000000000D+00
294  2.9300000000000D+00  0.0000000000000D+00  0.0000000000000D+00
295  2.9400000000000D+00  0.0000000000000D+00  0.0000000000000D+00
296  2.9500000000000D+00  0.0000000000000D+00  0.0000000000000D+00
297  2.9600000000000D+00  0.0000000000000D+00  0.0000000000000D+00
298  2.9700000000000D+00  0.0000000000000D+00  0.0000000000000D+00
299  2.9800000000000D+00  0.0000000000000D+00  0.0000000000000D+00
300  2.9900000000000D+00  0.0000000000000D+00  0.0000000000000D+00
301  3.0000000000000D+00  0.0000000000000D+00  0.0000000000000D+00
302  3.0100000000000D+00  0.0000000000000D+00  0.0000000000000D+00
303  3.0200000000000D+00  0.0000000000000D+00  0.0000000000000D+00
304  3.0300000000000D+00  0.0000000000000D+00  0.0000000000000D+00
305  3.0400000000000D+00  0.0000000000000D+00  0.0000000000000D+00
306  3.0500000000000D+00  0.0000000000000D+00  0.0000000000000D+00
307  3.0600000000000D+00  0.0000000000000D+00  0.0000000000000D+00
308  3.0700000000000D+00  0.0000000000000D+00  0.0000000000000D+00
309  3.0800000000000D+00  0.0000000000000D+00  0.0000000000000D+00
310  3.0900000000000D+00  0.0000000000000D+00  0.0000000000000D+00
311  3.1000000000000D+00  0.0000000000000D+00  0.0000000000000D+00
312  3.1100000000000D+00  0.0000000000000D+00  0.0000000000000D+00
313  3.1200000000000D+00  0.0000000000000D+00  0.0000000000000D+00
314  3.1300000000000D+00  0.0000000000000D+00  0.0000000000000D+00
315  3.1400000000000D+00  0.0000000000000D+00  0.0000000000000D+00
316  3.1500000000000D+00  0.0000000000000D+00  0.0000000000000D+00
317  3.1600000000000D+00  0.0000000000000D+00  0.0000000000000D+00
318  3.1700000000000D+00  0.0000000000000D+00  0.0000000000000D+00
319  3.1800000000000D+00  0.0000000000000D+00  0.0000000000000D+00
320  3.1900000000000D+00  0.0000000000000D+00  0.0000000000000D+00
321  3.2000000000000D+00  0.0000000000000D+00  0.0000000000000D+00
322  3.2100000000000D+00  0.0000000000000D+00  0.0000000000000D+00
323  3.2200000000000D+00  0.0000000000000D+00  0.0000000000000D+00
324  3.2300000000000D+00  0.0000000000000D+00  0.0000000000000D+00
325  3.2400000000000D+00  0.0000000000000D+00  0.0000000000000D+00
326  3.2500000000000D+00  0.0000000000000D+00  0.0000000000000D+00
327  3.2600000000000D+00  0.0000000000000D+00  0.0000000000000D+00
328  3.2700000000000D+00  0.0000000000000D+00  0.0000000000000D+00
329  3.2800000000000D+00  0.0000000000000D+00  0.0000000000000D+00
330  3.2900000000000D+00  0.0000000000000D+00  0.0000000000000D+00
331  3.3000000000000D+00  0.0000000000000D+00  0.0000000000000D+00
332  3.3100000000000D+00  0.0000000000000D+00  0.0000000000000D+00
333  3.3200000000000D+00  0.0000000000000D+00  0.0000000000000D+00
334  3.3300000000000D+00  0.0000000000000D+00  0.0000000000000D+00
335  3.3400000000000D+00  0.0000000000000D+00  0.0000000000000D+00
336  3.3500000000000D+00  0.0000000000000D+00  0.0000000000000D+00
337  3.3600000000000D+00  0.0000000000000D+00  0.0000000000000D+00
338  3.3700000000000D+00  0.0000000000000D+00  0.0000000000000D+00
339  3.3800000000000D+00  0.0000000000000D+00  0.0000000000000D+00
340  3.3900000000000D+00  0.0000000000000D+00  0.0000000000000D+00
341  3.4000000000000D+00  0.0000000000000D+00  0.0000000000000D+00
342  3.4100000000000D+00  0.0000000000000D+00  0.0000000000000D+00
343  3.4200000000000D+00  0.0000000000000D+00  0.0000000000000D+00
344  3.4300000000000D+00  0.0000000000000D+00  0.0000000000000D+00
345  3.4400000000000D+00  0.0000000000000D+00  0.0000000000000D+00
346  3.4500000000000D+00  0.0000000000000D+00  0.0000000000000D+00
347  3.4600000000000D+00  0.0000000000000D+00  0.0000000000000D+00
348  3.4700000000000D+00  0.0000000000000D+00  0.0000000000000D+00
349  3.4800000000000D+00  0.0000000000000D+00  0.0000000000000D+00
350  3.4900000000000D+00  0.0000000000000D+00  0.0000000000000D+00
351  3.5000000000000D+00  0.0000000000000D+00  0.0000000000000D+00
352  3.5100000000000D+00  0.0000000000000D+00  0.0000000000000D+00
353  3.5200000000000D+00  0.0000000000000D+00  0.0000000000000D+00
354  3.5300000000000D+00  0.0000000000000D+00  0.0000000000000D+00
355  3.5400000000000D+00  0.0000000000000D+00  0.0000000000000D+00
356  3.5500000000000D+00  0.0000000000000D+00  0.0000000000000D+00
357  3.5600000000000D+00  0.0000000000000D+00  0.0000000000000D+00
358  3.5700000000000D+00  0.0000000000000D+00  0.0000000000000D+00
359  3.5800000000000D+00  0.0000000000000D+00  0.0000000000000D+00
360  3.5900000000000D+00  0.0000000000000D+00  0.0000000000000D+00
361  3.6000000000000D+00  0.0000000000000D+00  0.0000000000000D+00
362  3.6100000000000D+00  0.0000000000000D+00  0.0000000000000D+00
363  3.6200000000000D+00  0.0000000000000D+00  0.0000000000000D+00
364  3.6300000000000D+00  0.0000000000000D+00  0.0000000000000D+00
365  3.6400000000000D+00  0.0000000000000D+00  0.0000000000000D+00
366  3.6500000000000D+00  0.0000000000000D+00  0.0000000000000D+00
367  3.6600000000000D+00  0.0000000000000D+00  0.0000000000000D+00
368  3.6700000000000D+00  0.0000000000000D+00  0.0000000000000D+00
369  3.6800000000000D+00  0.0000000000000D+00  0.0000000000000D+00
370  3.6900000000000D+00  0.0000000000000D+00  0.0000000000000D+00
371  3.7000000000000D+00  0.0000000000000D+00  0.0000000000000D+00
372  3.7100000000000D+00  0.0000000000000D+00  0.0000000000000D+00
373  3.7200000000000D+00  0.0000000000000D+00  0.0000000000000D+00
374  3.7300000000000D+00  0.0000000000000D+00  0.0000000000000D+00
375  3.7400000000000D+00  0.0000000000000D+00  0.0000000000000D+00
376  3.7500000000000D+00  0.0000000000000D+00  0.0000000000000D+00
377  3.7600000000000D+00  0.0000000000000D+00  0.0000000000000D+00
378  3.7700000000000D+00  0.0000000000000D+00  0.0000000000000D+00
379  3.7800000000000D+00  0.0000000000000D+00  0.0000000000000D+00
380  3.7900000000000D+00  0.0000000000000D+00  0.0000000000000D+00
381  3.8000000000000D+00  0.0000000000000D+00  0.0000000000000D+00
382  3.8100000000000D+00  0.0000000000000D+00  0.0000000000000D+00
383  3.8200000000000D+00  0.0000000000000D+00  0.0000000000000D+00
384  3.8300000000000D+00  0.0000000000000D+00  0.0000000000000D+00
385  3.8400000000000D+00  0.0000000000000D+00  0.0000000000000D+00
386  3.8500000000000D+00  0.0000000000000D+00  0.0000000000000D+00
387  3.8600000000000D+00  0.0000000000000D+00  0.0000000000000D+00
388  3.8700000000000D+00  0.0000000000000D+00  0.0000000000000D+00
389  3.8800000000000D+00  0.0000000000000D+00  0.0000000000000D+00
390  3.8900000000000D+00  0.0000000000000D+00  0.0000000000000D+00
391  3.9000000000000D+00  0.0000000000000D+00  0.0000000000000D+00
392  3.9100000000000D+00  0.0000000000000D+00  0.0000000000000D+00
393  3.9200000000000D+00  0.0000000000000D+00  0.0000000000000D+00
394  3.9300000000000D+00  0.0000000000000D+00  0.0000000000000D+00
395  3.9400000000000D+00  0.0000000000000D+00  0.0000000000000D+00
396  3.9500000000000D+00  0.0000000000000D+00  0.0000000000000D+00
397  3.9600000000000D+00  0.0000000000000D+00  0.0000000000000D+00
398  3.9700000000000D+00  0.0000000000000D+00  0.0000000000000D+00
399  3.9800000000000D+00  0.0000000000000D+00  0.0000000000000D+00
400  3.9900000000000D+00  0.0000000000000D+00  0.0000000000000D+00
401  4.0000000000000D+00  0.0000000000000D+00  0.0000000000000D+00
402  4.0100000000000D+00  0.0000000000000D+00  0.0000000000000D+00
403  4.0200000000000D+00  0.0000000000000D+00  0.0000000000000D+00
404  4.0300000000000D+00  0.0000000000000D+00  0.0000000000000D+00
405  4.0400000000000D+00  0.0000000000000D+00  0.0000000000000D+00
406  4.0500000000000D+00  0.0000000000000D+00  0.0000000000000D+00
407  4.0600000000000D+00  0.0000000000000D+00  0.0000000000000D+00
408  4.0700000000000D+00  0.0000000000000D+00  0.0000000000000D+00
409  4.0800000000000D+00  0.0000000000000D+00  0.0000000000000D+00
410  4.0900000000000D+00  0.0000000000000D+00  0.0000000000000D+00
411  4.1000000000000D+00  0.0000000000000D+00  0.0000000000000D+00
412  4.1100000000000D+00  0.0000000000000D+00  0.0000000000000D+00
413  4.1200000000000D+00  0.0000000000000D+00  0.0000000000000D+00
414  4.1300000000000D+00  0.0000000000000D+00  0.0000000000000D+00
415  4.1400000000000D+00  0.0000000000000D+00  0.0000000000000D+00
416  4.1500000000000D+00  0.0000000000000D+00  0.0000000000000D+00
417  4.1600000000000D+00  0.0000000000000D+00  0.0000000000000D+00
418  4.1700000000000D+00  0.0000000000000D+00  0.0000000000000D+00
419  4.1800000000000D+00  0.0000000000000D+00  0.0000000000000D+00
420  4.1900000000000D+00  0.0000000000000D+00  0.0000000000000D+00
421  4.2000000000000D+00  0.0000000000000D+00  0.0000000000000D+00
422  4.2100000000000D+00  0.0000000000000D+00  0.0000000000000D+00
423  4.2200000000000D+00  0.0000000000000D+00  0.0000000000000D+00
424  4.2300000000000D+00  0.0000000000000D+00  0.0000000000000D+00
425  4.2400000000000D+00  0.0000000000000D+00  0.0000000000000D+00
426  4.2500000000000D+00  0.0000000000000D+00  0.0000000000000D+00
427  4.2600000000000D+00  0.0000000000000D+00  0.0000000000000D+00
428  4.2700000000000D+00  0.0000000000000D+00  0.0000000000000D+00
429  4.2800000000000D+00  0.0000000000000D+00  0.0000000000000D+00
430  4.2900000000000D+00  0.0000000000000D+00  0.0000000000000D+00
431  4.3000000000000D+00  0.0000000000000D+00  0.0000000000000D+00
432  4.3100000000000D+00  0.0000000000000D+00  0.0000000000000D+00
433  4.3200000000000D+00  0.0000000000000D+00  0.0000000000000D+00
434  4.3300000000000D+00  0.0000000000000D+00  0.0000000000000D+00
435  4.3400000000000D+00  0.0000000000000D+00  0.0000000000000D+00
436  4.3500000000000D+00  0.0000000000000D+00  0.0000000000000D+00
437  4.3600000000000D+00  0.0000000000000D+00  0.0000000000000D+00
438  4.3700000000000D+00  0.0000000000000D+00  0.0000000000000D+00
439  4.3800000000000D+00  0.0000000000000D+00  0.0000000000000D+00
440  4.3900000000000D+00  0.0000000000000D+00  0.0000000000000D+00
441  4.4000000000000D+00  0.0000000000000D+00  0.0000000000000D+00
442  4.4100000000000D+00  0.0000000000000D+00  0.0000000000000D+00
443  4.4200000000000D+00  0.0000000000000D+00  0.0000000000000D+00