Ti    ONCVPSP  r_core=  1.36  1.31  1.66
     22.0000     12.0000      170103    zatom,zion,pspd
     8   -1012   2     4   600     0    pspcod,pspxc,lmax,lloc,mmax,r2well
  5.99000000  3.00000000  0.00000000    rchrg fchrg qchrg
     2     2     2     0     0    nproj
     0                 extension_switch
   0                         1.0460891695129D+01  1.0829493357812D+00
     1  0.0000000000000D+00 -2.6769811922733D-09  9.9328985037062D-09
     2  1.0000000000000D-02  8.7593983912123D-02 -5.0388414438636D-02
     3  2.0000000000000D-02  1.7485811840750D-01 -1.0011823088782D-01
     4  3.0000000000000D-02  2.6146553002705D-01 -1.4854046838669D-01
     5  4.0000000000000D-02  3.4709525406765D-01 -1.9502522307198D-01
     6  5.0000000000000D-02  4.3143508175903D-01 -2.3897081691473D-01
     7  6.0000000000000D-02  5.1418428074006D-01 -2.7981248588447D-01
     8  7.0000000000000D-02  5.9505614980212D-01 -3.1703046589433D-01
     9  8.0000000000000D-02  6.7378037154401D-01 -3.5015734481405D-01
    10  9.0000000000000D-02  7.5010512984719D-01 -3.7878456094890D-01
    11  1.0000000000000D-01  8.2379896287865D-01 -4.0256794247485D-01
    12  1.1000000000000D-01  8.9465232659957D-01 -4.2123219816618D-01
    13  1.2000000000000D-01  9.6247884843290D-01 -4.3457428709208D-01
    14  1.3000000000000D-01  1.0271162557449D+00 -4.4246561351286D-01
    15  1.4000000000000D-01  1.0884269690446D+00 -4.4485301267140D-01
    16  1.5000000000000D-01  1.1462983552133D+00 -4.4175851323381D-01
    17  1.6000000000000D-01  1.2006426415611D+00 -4.3327788245729D-01
    18  1.7000000000000D-01  1.2513964969685D+00 -4.1957798042017D-01
    19  1.8000000000000D-01  1.2985202917347D+00 -4.0089296950561D-01
    20  1.9000000000000D-01  1.3419970529153D+00 -3.7751944446124D-01
    21  2.0000000000000D-01  1.3818311368215D+00 -3.4981056644351D-01
    22  2.1000000000000D-01  1.4180466448752D+00 -3.1816930120043D-01
    23  2.2000000000000D-01  1.4506856131091D+00 -2.8304087666814D-01
    24  2.3000000000000D-01  1.4798060091887D+00 -2.4490458850308D-01
    25  2.4000000000000D-01  1.5054795738555D+00 -2.0426509321775D-01
    26  2.5000000000000D-01  1.5277895461078D+00 -1.6164333744359D-01
    27  2.6000000000000D-01  1.5468283131844D+00 -1.1756727825453D-01
    28  2.7000000000000D-01  1.5626950274927D+00 -7.2562553335821D-02
    29  2.8000000000000D-01  1.5754932329789D+00 -2.7143260998657D-02
    30  2.9000000000000D-01  1.5853285430935D+00  1.8196991406444D-02
    31  3.0000000000000D-01  1.5923064114393D+00  6.2993616226444D-02
    32  3.1000000000000D-01  1.5965300344326D+00  1.0681900363881D-01
    33  3.2000000000000D-01  1.5980984228836D+00  1.4928977062505D-01
    34  3.3000000000000D-01  1.5971046763401D+00  1.9007317378506D-01
    35  3.4000000000000D-01  1.5936344904024D+00  2.2889257272951D-01
    36  3.5000000000000D-01  1.5877649230456D+00  2.6553184648984D-01
    37  3.6000000000000D-01  1.5795634413655D+00  2.9983868280362D-01
    38  3.7000000000000D-01  1.5690872651549D+00  3.3172667898821D-01
    39  3.8000000000000D-01  1.5563830184078D+00  3.6117621310614D-01
    40  3.9000000000000D-01  1.5414866943265D+00  3.8823406492495D-01
    41  4.0000000000000D-01  1.5244239337608D+00  4.1301178744417D-01
    42  4.1000000000000D-01  1.5052106113331D+00  4.3568285115400D-01
    43  4.2000000000000D-01  1.4838537178920D+00  4.5647860434879D-01
    44  4.3000000000000D-01  1.4603525224903D+00  4.7568311339263D-01
    45  4.4000000000000D-01  1.4346999918855D+00  4.9362696647912D-01
    46  4.5000000000000D-01  1.4068844407071D+00  5.1068014280990D-01
    47  4.6000000000000D-01  1.3768913810051D+00  5.2724406592320D-01
    48  4.7000000000000D-01  1.3447055359716D+00  5.4374297484505D-01
    49  4.8000000000000D-01  1.3103129792736D+00  5.6061475954769D-01
    50  4.9000000000000D-01  1.2737033587192D+00  5.7830141765775D-01
    51  5.0000000000000D-01  1.2348721609477D+00  5.9723929726265D-01
    52  5.1000000000000D-01  1.1938229725265D+00  6.1784929587392D-01
    53  5.2000000000000D-01  1.1505696922869D+00  6.4052718800598D-01
    54  5.3000000000000D-01  1.1051386499481D+00  6.6563425335688D-01
    55  5.4000000000000D-01  1.0575705870654D+00  6.9348837422604D-01
    56  5.5000000000000D-01  1.0079224581016D+00  7.2435576458212D-01
    57  5.6000000000000D-01  9.5626901190703D-01  7.5844348421918D-01
    58  5.7000000000000D-01  9.0270411710748D-01  7.9589287978329D-01
    59  5.8000000000000D-01  8.4734179875849D-01  8.3677408034372D-01
    60  5.9000000000000D-01  7.9031695809689D-01  8.8108165877759D-01
    61  6.0000000000000D-01  7.3178575221957D-01  9.2873155184478D-01
    62  6.1000000000000D-01  6.7192561598873D-01  9.7955931165115D-01
    63  6.2000000000000D-01  6.1093491427581D-01  1.0333197397097D+00
    64  6.3000000000000D-01  5.4903221879103D-01  1.0896879320835D+00
    65  6.4000000000000D-01  4.8645521000259D-01  1.1482617408723D+00
    66  6.5000000000000D-01  4.2345921103238D-01  1.2085656335733D+00
    67  6.6000000000000D-01  3.6031536674926D-01  1.2700559082490D+00
    68  6.7000000000000D-01  2.9730848746157D-01  1.3321271993646D+00
    69  6.8000000000000D-01  2.3473458259283D-01  1.3941201867740D+00
    70  6.9000000000000D-01  1.7289811533532D-01  1.4553303992855D+00
    71  7.0000000000000D-01  1.1210901446733D-01  1.5150179847017D+00
    72  7.1000000000000D-01  5.2679484160019D-02  1.5724183006935D+00
    73  7.2000000000000D-01 -5.0793433258724D-03  1.6267531653877D+00
    74  7.3000000000000D-01 -6.0860863808973D-02  1.6772425937391D+00
    75  7.4000000000000D-01 -1.1436651535108D-01  1.7231168355739D+00
    76  7.5000000000000D-01 -1.6530929772521D-01  1.7636285239647D+00
    77  7.6000000000000D-01 -2.1341724351239D-01  1.7980647384380D+00
    78  7.7000000000000D-01 -2.5843678702505D-01  1.8257587865086D+00
    79  7.8000000000000D-01 -3.0013597800559D-01  1.8461015092663D+00
    80  7.9000000000000D-01 -3.3830748866500D-01  1.8585519221542D+00
    81  8.0000000000000D-01 -3.7277136509517D-01  1.8626470106473D+00
    82  8.1000000000000D-01 -4.0337747737849D-01  1.8580105121424D+00
    83  8.2000000000000D-01 -4.3000762678277D-01  1.8443605298378D+00
    84  8.3000000000000D-01 -4.5257727321065D-01  1.8215158415136D+00
    85  8.4000000000000D-01 -4.7103685149953D-01  1.7894007856496D+00
    86  8.5000000000000D-01 -4.8537265115840D-01  1.7480486289496D+00
    87  8.6000000000000D-01 -4.9560724058974D-01  1.6976033427342D+00
    88  8.7000000000000D-01 -5.0179942367762D-01  1.6383197404539D+00
    89  8.8000000000000D-01 -5.0404372371851D-01  1.5705619543677D+00
    90  8.9000000000000D-01 -5.0246939691743D-01  1.4948002558071D+00
    91  9.0000000000000D-01 -4.9723898495158D-01  1.4116062499861D+00
    92  9.1000000000000D-01 -4.8854642329888D-01  1.3216465025791D+00
    93  9.2000000000000D-01 -4.7661472902237D-01  1.2256746808457D+00
    94  9.3000000000000D-01 -4.6169329837803D-01  1.1245223165095D+00
    95  9.4000000000000D-01 -4.4405485086139D-01  1.0190883204804D+00
    96  9.5000000000000D-01 -4.2399206202424D-01  9.1032740047408D-01
    97  9.6000000000000D-01 -4.0181393247437D-01  7.9923755124200D-01
    98  9.7000000000000D-01 -3.7784194486234D-01  6.8684680328144D-01
    99  9.8000000000000D-01 -3.5240606417004D-01  5.7419942883648D-01
   100  9.9000000000000D-01 -3.2584063941613D-01  4.6234181436265D-01
   101  1.0000000000000D+00 -2.9848026664916D-01  3.5230821517007D-01
   102  1.0100000000000D+00 -2.7065567397484D-01  2.4510661128971D-01
   103  1.0200000000000D+00 -2.4268968926942D-01  1.4170488338934D-01
   104  1.0300000000000D+00 -2.1489335018429D-01  4.3017523862724D-02
   105  1.0400000000000D+00 -1.8756221385913D-01 -5.0106909658402D-02
   106  1.0500000000000D+00 -1.6097292118089D-01 -1.3689740044931D-01
   107  1.0600000000000D+00 -1.3538006613144D-01 -2.1667095615590D-01
   108  1.0700000000000D+00 -1.1101341637284D-01 -2.8884180321564D-01
   109  1.0800000000000D+00 -8.8075525760795D-02 -3.5292914574105D-01
   110  1.0900000000000D+00 -6.6739772843065D-02 -4.0856336654581D-01
   111  1.1000000000000D+00 -4.7148853988110D-02 -4.5549056772050D-01
   112  1.1100000000000D+00 -2.9413751000943D-02 -4.9357538022747D-01
   113  1.1200000000000D+00 -1.3613186710818D-02 -5.2280199524464D-01
   114  1.1300000000000D+00  2.0642669777578D-04 -5.4327340180045D-01
   115  1.1400000000000D+00  1.2030548469000D-02 -5.5520883945361D-01
   116  1.1500000000000D+00  2.1875590118676D-02 -5.5893950796027D-01
   117  1.1600000000000D+00  2.9787534594868D-02 -5.5490260259440D-01
   118  1.1700000000000D+00  3.5840120036815D-02 -5.4363377309518D-01
   119  1.1800000000000D+00  4.0132619678042D-02 -5.2575812345180D-01
   120  1.1900000000000D+00  4.2787258553002D-02 -5.0197990303094D-01
   121  1.2000000000000D+00  4.3946312314165D-02 -4.7307105652313D-01
   122  1.2100000000000D+00  4.3768938715745D-02 -4.3985881934495D-01
   123  1.2200000000000D+00  4.2427796660946D-02 -4.0321256098388D-01
   124  1.2300000000000D+00  4.0105512602523D-02 -3.6403009660443D-01
   125  1.2400000000000D+00  3.6991055198321D-02 -3.2322369123487D-01
   126  1.2500000000000D+00  3.3276081385866D-02 -2.8170598912065D-01
   127  1.2600000000000D+00  2.9151318666638D-02 -2.4037610664025D-01
   128  1.2700000000000D+00  2.4803048500195D-02 -2.0010612900909D-01
   129  1.2800000000000D+00  2.0409737192098D-02 -1.6172817195461D-01
   130  1.2900000000000D+00  1.6138937539999D-02 -1.2602249503122D-01
   131  1.3000000000000D+00  1.2144256639851D-02 -9.3705783009097D-02
   132  1.3100000000000D+00  8.5633578068793D-03 -6.5423619246288D-02
   133  1.3200000000000D+00  5.5170872087837D-03 -4.1754465425404D-02
   134  1.3300000000000D+00  3.0850305159863D-03 -2.3047209372054D-02
   135  1.3400000000000D+00  1.3628447299626D-03 -9.8379983393643D-03
   136  1.3500000000000D+00  4.3926397841685D-04 -2.6753367291404D-03
   137  1.3600000000000D+00  9.5232040660288D-05 -1.3313523819186D-04
   138  1.3700000000000D+00  5.8841380249234D-06  1.2800653116447D-04
   139  1.3800000000000D+00  5.9365825198379D-07 -7.1636695671478D-05
   140  1.3900000000000D+00  4.0761910599737D-07 -1.3998359783879D-05
   141  1.4000000000000D+00  3.7524612542896D-07  1.2363833152827D-05
   142  1.4100000000000D+00 -1.7333816611509D-07  4.6976370375888D-07
   143  1.4200000000000D+00 -2.6958417198101D-07  7.3059997081361D-07
   144  1.4300000000000D+00  0.0000000000000D+00  0.0000000000000D+00
   145  1.4400000000000D+00  0.0000000000000D+00  0.0000000000000D+00
   146  1.4500000000000D+00  0.0000000000000D+00  0.0000000000000D+00
   147  1.4600000000000D+00  0.0000000000000D+00  0.0000000000000D+00
   148  1.4700000000000D+00  0.0000000000000D+00  0.0000000000000D+00
   149  1.4800000000000D+00  0.0000000000000D+00  0.0000000000000D+00
   150  1.4900000000000D+00  0.0000000000000D+00  0.0000000000000D+00
   151  1.5000000000000D+00  0.0000000000000D+00  0.0000000000000D+00
   152  1.5100000000000D+00  0.0000000000000D+00  0.0000000000000D+00
   153  1.5200000000000D+00  0.0000000000000D+00  0.0000000000000D+00
   154  1.5300000000000D+00  0.0000000000000D+00  0.0000000000000D+00
   155  1.5400000000000D+00  0.0000000000000D+00  0.0000000000000D+00
   156  1.5500000000000D+00  0.0000000000000D+00  0.0000000000000D+00
   157  1.5600000000000D+00  0.0000000000000D+00  0.0000000000000D+00
   158  1.5700000000000D+00  0.0000000000000D+00  0.0000000000000D+00
   159  1.5800000000000D+00  0.0000000000000D+00  0.0000000000000D+00
   160  1.5900000000000D+00  0.0000000000000D+00  0.0000000000000D+00
   161  1.6000000000000D+00  0.0000000000000D+00  0.0000000000000D+00
   162  1.6100000000000D+00  0.0000000000000D+00  0.0000000000000D+00
   163  1.6200000000000D+00  0.0000000000000D+00  0.0000000000000D+00
   164  1.6300000000000D+00  0.0000000000000D+00  0.0000000000000D+00
   165  1.6400000000000D+00  0.0000000000000D+00  0.0000000000000D+00
   166  1.6500000000000D+00  0.0000000000000D+00  0.0000000000000D+00
   167  1.6600000000000D+00  0.0000000000000D+00  0.0000000000000D+00
   168  1.6700000000000D+00  0.0000000000000D+00  0.0000000000000D+00
   169  1.6800000000000D+00  0.0000000000000D+00  0.0000000000000D+00
   170  1.6900000000000D+00  0.0000000000000D+00  0.0000000000000D+00
   171  1.7000000000000D+00  0.0000000000000D+00  0.0000000000000D+00
   172  1.7100000000000D+00  0.0000000000000D+00  0.0000000000000D+00
   173  1.7200000000000D+00  0.0000000000000D+00  0.0000000000000D+00
   174  1.7300000000000D+00  0.0000000000000D+00  0.0000000000000D+00
   175  1.7400000000000D+00  0.0000000000000D+00  0.0000000000000D+00
   176  1.7500000000000D+00  0.0000000000000D+00  0.0000000000000D+00
   177  1.7600000000000D+00  0.0000000000000D+00  0.0000000000000D+00
   178  1.7700000000000D+00  0.0000000000000D+00  0.0000000000000D+00
   179  1.7800000000000D+00  0.0000000000000D+00  0.0000000000000D+00
   180  1.7900000000000D+00  0.0000000000000D+00  0.0000000000000D+00
   181  1.8000000000000D+00  0.0000000000000D+00  0.0000000000000D+00
   182  1.8100000000000D+00  0.0000000000000D+00  0.0000000000000D+00
   183  1.8200000000000D+00  0.0000000000000D+00  0.0000000000000D+00
   184  1.8300000000000D+00  0.0000000000000D+00  0.0000000000000D+00
   185  1.8400000000000D+00  0.0000000000000D+00  0.0000000000000D+00
   186  1.8500000000000D+00  0.0000000000000D+00  0.0000000000000D+00
   187  1.8600000000000D+00  0.0000000000000D+00  0.0000000000000D+00
   188  1.8700000000000D+00  0.0000000000000D+00  0.0000000000000D+00
   189  1.8800000000000D+00  0.0000000000000D+00  0.0000000000000D+00
   190  1.8900000000000D+00  0.0000000000000D+00  0.0000000000000D+00
   191  1.9000000000000D+00  0.0000000000000D+00  0.0000000000000D+00
   192  1.9100000000000D+00  0.0000000000000D+00  0.0000000000000D+00
   193  1.9200000000000D+00  0.0000000000000D+00  0.0000000000000D+00
   194  1.9300000000000D+00  0.0000000000000D+00  0.0000000000000D+00
   195  1.9400000000000D+00  0.0000000000000D+00  0.0000000000000D+00
   196  1.9500000000000D+00  0.0000000000000D+00  0.0000000000000D+00
   197  1.9600000000000D+00  0.0000000000000D+00  0.0000000000000D+00
   198  1.9700000000000D+00  0.0000000000000D+00  0.0000000000000D+00
   199  1.9800000000000D+00  0.0000000000000D+00  0.0000000000000D+00
   200  1.9900000000000D+00  0.0000000000000D+00  0.0000000000000D+00
   201  2.0000000000000D+00  0.0000000000000D+00  0.0000000000000D+00
   202  2.0100000000000D+00  0.0000000000000D+00  0.0000000000000D+00
   203  2.0200000000000D+00  0.0000000000000D+00  0.0000000000000D+00
   204  2.0300000000000D+00  0.0000000000000D+00  0.0000000000000D+00
   205  2.0400000000000D+00  0.0000000000000D+00  0.0000000000000D+00
   206  2.0500000000000D+00  0.0000000000000D+00  0.0000000000000D+00
   207  2.0600000000000D+00  0.0000000000000D+00  0.0000000000000D+00
   208  2.0700000000000D+00  0.0000000000000D+00  0.0000000000000D+00
   209  2.0800000000000D+00  0.0000000000000D+00  0.0000000000000D+00
   210  2.0900000000000D+00  0.0000000000000D+00  0.0000000000000D+00
   211  2.1000000000000D+00  0.0000000000000D+00  0.0000000000000D+00
   212  2.1100000000000D+00  0.0000000000000D+00  0.0000000000000D+00
   213  2.1200000000000D+00  0.0000000000000D+00  0.0000000000000D+00
   214  2.1300000000000D+00  0.0000000000000D+00  0.0000000000000D+00
   215  2.1400000000000D+00  0.0000000000000D+00  0.0000000000000D+00
   216  2.1500000000000D+00  0.0000000000000D+00  0.0000000000000D+00
   217  2.1600000000000D+00  0.0000000000000D+00  0.0000000000000D+00
   218  2.1700000000000D+00  0.0000000000000D+00  0.0000000000000D+00
   219  2.1800000000000D+00  0.0000000000000D+00  0.0000000000000D+00
   220  2.1900000000000D+00  0.0000000000000D+00  0.0000000000000D+00
   221  2.2000000000000D+00  0.0000000000000D+00  0.0000000000000D+00
   222  2.2100000000000D+00  0.0000000000000D+00  0.0000000000000D+00
   223  2.2200000000000D+00  0.0000000000000D+00  0.0000000000000D+00
   224  2.2300000000000D+00  0.0000000000000D+00  0.0000000000000D+00
   225  2.2400000000000D+00  0.0000000000000D+00  0.0000000000000D+00
   226  2.2500000000000D+00  0.0000000000000D+00  0.0000000000000D+00
   227  2.2600000000000D+00  0.0000000000000D+00  0.0000000000000D+00
   228  2.2700000000000D+00  0.0000000000000D+00  0.0000000000000D+00
   229  2.2800000000000D+00  0.0000000000000D+00  0.0000000000000D+00
   230  2.2900000000000D+00  0.0000000000000D+00  0.0000000000000D+00
   231  2.3000000000000D+00  0.0000000000000D+00  0.0000000000000D+00
   232  2.3100000000000D+00  0.0000000000000D+00  0.0000000000000D+00
   233  2.3200000000000D+00  0.0000000000000D+00  0.0000000000000D+00
   234  2.3300000000000D+00  0.0000000000000D+00  0.0000000000000D+00
   235  2.3400000000000D+00  0.0000000000000D+00  0.0000000000000D+00
   236  2.3500000000000D+00  0.0000000000000D+00  0.0000000000000D+00
   237  2.3600000000000D+00  0.0000000000000D+00  0.0000000000000D+00
   238  2.3700000000000D+00  0.0000000000000D+00  0.0000000000000D+00
   239  2.3800000000000D+00  0.0000000000000D+00  0.0000000000000D+00
   240  2.3900000000000D+00  0.0000000000000D+00  0.0000000000000D+00
   241  2.4000000000000D+00  0.0000000000000D+00  0.0000000000000D+00
   242  2.4100000000000D+00  0.0000000000000D+00  0.0000000000000D+00
   243  2.4200000000000D+00  0.0000000000000D+00  0.0000000000000D+00
   244  2.4300000000000D+00  0.0000000000000D+00  0.0000000000000D+00
   245  2.4400000000000D+00  0.0000000000000D+00  0.0000000000000D+00
   246  2.4500000000000D+00  0.0000000000000D+00  0.0000000000000D+00
   247  2.4600000000000D+00  0.0000000000000D+00  0.0000000000000D+00
   248  2.4700000000000D+00  0.0000000000000D+00  0.0000000000000D+00
   249  2.4800000000000D+00  0.0000000000000D+00  0.0000000000000D+00
   250  2.4900000000000D+00  0.0000000000000D+00  0.0000000000000D+00
   251  2.5000000000000D+00  0.0000000000000D+00  0.0000000000000D+00
   252  2.5100000000000D+00  0.0000000000000D+00  0.0000000000000D+00
   253  2.5200000000000D+00  0.0000000000000D+00  0.0000000000000D+00
   254  2.5300000000000D+00  0.0000000000000D+00  0.0000000000000D+00
   255  2.5400000000000D+00  0.0000000000000D+00  0.0000000000000D+00
   256  2.5500000000000D+00  0.0000000000000D+00  0.0000000000000D+00
   257  2.5600000000000D+00  0.0000000000000D+00  0.0000000000000D+00
   258  2.5700000000000D+00  0.0000000000000D+00  0.0000000000000D+00
   259  2.5800000000000D+00  0.0000000000000D+00  0.0000000000000D+00
   260  2.5900000000000D+00  0.0000000000000D+00  0.0000000000000D+00
   261  2.6000000000000D+00  0.0000000000000D+00  0.0000000000000D+00
   262  2.6100000000000D+00  0.0000000000000D+00  0.0000000000000D+00
   263  2.6200000000000D+00  0.0000000000000D+00  0.0000000000000D+00
   264  2.6300000000000D+00  0.0000000000000D+00  0.0000000000000D+00
   265  2.6400000000000D+00  0.0000000000000D+00  0.0000000000000D+00
   266  2.6500000000000D+00  0.0000000000000D+00  0.0000000000000D+00
   267  2.6600000000000D+00  0.0000000000000D+00  0.0000000000000D+00
   268  2.6700000000000D+00  0.0000000000000D+00  0.0000000000000D+00
   269  2.6800000000000D+00  0.0000000000000D+00  0.0000000000000D+00
   270  2.6900000000000D+00  0.0000000000000D+00  0.0000000000000D+00
   271  2.7000000000000D+00  0.0000000000000D+00  0.0000000000000D+00
   272  2.7100000000000D+00  0.0000000000000D+00  0.0000000000000D+00
   273  2.7200000000000D+00  0.0000000000000D+00  0.0000000000000D+00
   274  2.7300000000000D+00  0.0000000000000D+00  0.0000000000000D+00
   275  2.7400000000000D+00  0.0000000000000D+00  0.0000000000000D+00
   276  2.7500000000000D+00  0.0000000000000D+00  0.0000000000000D+00
   277  2.7600000000000D+00  0.0000000000000D+00  0.0000000000000D+00
   278  2.7700000000000D+00  0.0000000000000D+00  0.0000000000000D+00
   279  2.7800000000000D+00  0.0000000000000D+00  0.0000000000000D+00
   280  2.7900000000000D+00  0.0000000000000D+00  0.0000000000000D+00
   281  2.8000000000000D+00  0.0000000000000D+00  0.0000000000000D+00
   282  2.8100000000000D+00  0.0000000000000D+00  0.0000000000000D+00
   283  2.8200000000000D+00  0.0000000000000D+00  0.0000000000000D+00
   284  2.8300000000000D+00  0.0000000000000D+00  0.0000000000000D+00
   285  2.8400000000000D+00  0.0000000000000D+00  0.0000000000000D+00
   286  2.8500000000000D+00  0.0000000000000D+00  0.0000000000000D+00
   287  2.8600000000000D+00  0.0000000000000D+00  0.0000000000000D+00
   288  2.8700000000000D+00  0.0000000000000D+00  0.0000000000000D+00
   289  2.8800000000000D+00  0.0000000000000D+00  0.0000000000000D+00
   290  2.8900000000000D+00  0.0000000000000D+00  0.0000000000000D+00
   291  2.9000000000000D+00  0.0000000000000D+00  0.0000000000000D+00
   292  2.9100000000000D+00  0.0000000000000D+00  0.0000000000000D+00
   293  2.9200000000000D+00  0.0000000000000D+00  0.0000000000000D+00
   294  2.9300000000000D+00  0.0000000000000D+00  0.0000000000000D+00
   295  2.9400000000000D+00  0.0000000000000D+00  0.0000000000000D+00
   296  2.9500000000000D+00  0.0000000000000D+00  0.0000000000000D+00
   297  2.9600000000000D+00  0.0000000000000D+00  0.0000000000000D+00
   298  2.9700000000000D+00  0.0000000000000D+00  0.0000000000000D+00
   299  2.9800000000000D+00  0.0000000000000D+00  0.0000000000000D+00
   300  2.9900000000000D+00  0.0000000000000D+00  0.0000000000000D+00
   301  3.0000000000000D+00  0.0000000000000D+00  0.0000000000000D+00
   302  3.0100000000000D+00  0.0000000000000D+00  0.0000000000000D+00
   303  3.0200000000000D+00  0.0000000000000D+00  0.0000000000000D+00
   304  3.0300000000000D+00  0.0000000000000D+00  0.0000000000000D+00
   305  3.0400000000000D+00  0.0000000000000D+00  0.0000000000000D+00
   306  3.0500000000000D+00  0.0000000000000D+00  0.0000000000000D+00
   307  3.0600000000000D+00  0.0000000000000D+00  0.0000000000000D+00
   308  3.0700000000000D+00  0.0000000000000D+00  0.0000000000000D+00
   309  3.0800000000000D+00  0.0000000000000D+00  0.0000000000000D+00
   310  3.0900000000000D+00  0.0000000000000D+00  0.0000000000000D+00
   311  3.1000000000000D+00  0.0000000000000D+00  0.0000000000000D+00
   312  3.1100000000000D+00  0.0000000000000D+00  0.0000000000000D+00
   313  3.1200000000000D+00  0.0000000000000D+00  0.0000000000000D+00
   314  3.1300000000000D+00  0.0000000000000D+00  0.0000000000000D+00
   315  3.1400000000000D+00  0.0000000000000D+00  0.0000000000000D+00
   316  3.1500000000000D+00  0.0000000000000D+00  0.0000000000000D+00
   317  3.1600000000000D+00  0.0000000000000D+00  0.0000000000000D+00
   318  3.1700000000000D+00  0.0000000000000D+00  0.0000000000000D+00
   319  3.1800000000000D+00  0.0000000000000D+00  0.0000000000000D+00
   320  3.1900000000000D+00  0.0000000000000D+00  0.0000000000000D+00
   321  3.2000000000000D+00  0.0000000000000D+00  0.0000000000000D+00
   322  3.2100000000000D+00  0.0000000000000D+00  0.0000000000000D+00
   323  3.2200000000000D+00  0.0000000000000D+00  0.0000000000000D+00
   324  3.2300000000000D+00  0.0000000000000D+00  0.0000000000000D+00
   325  3.2400000000000D+00  0.0000000000000D+00  0.0000000000000D+00
   326  3.2500000000000D+00  0.0000000000000D+00  0.0000000000000D+00
   327  3.2600000000000D+00  0.0000000000000D+00  0.0000000000000D+00
   328  3.2700000000000D+00  0.0000000000000D+00  0.0000000000000D+00
   329  3.2800000000000D+00  0.0000000000000D+00  0.0000000000000D+00
   330  3.2900000000000D+00  0.0000000000000D+00  0.0000000000000D+00
   331  3.3000000000000D+00  0.0000000000000D+00  0.0000000000000D+00
   332  3.3100000000000D+00  0.0000000000000D+00  0.0000000000000D+00
   333  3.3200000000000D+00  0.0000000000000D+00  0.0000000000000D+00
   334  3.3300000000000D+00  0.0000000000000D+00  0.0000000000000D+00
   335  3.3400000000000D+00  0.0000000000000D+00  0.0000000000000D+00
   336  3.3500000000000D+00  0.0000000000000D+00  0.0000000000000D+00
   337  3.3600000000000D+00  0.0000000000000D+00  0.0000000000000D+00
   338  3.3700000000000D+00  0.0000000000000D+00  0.0000000000000D+00
   339  3.3800000000000D+00  0.0000000000000D+00  0.0000000000000D+00
   340  3.3900000000000D+00  0.0000000000000D+00  0.0000000000000D+00
   341  3.4000000000000D+00  0.0000000000000D+00  0.0000000000000D+00
   342  3.4100000000000D+00  0.0000000000000D+00  0.0000000000000D+00
   343  3.4200000000000D+00  0.0000000000000D+00  0.0000000000000D+00
   344  3.4300000000000D+00  0.0000000000000D+00  0.0000000000000D+00
   345  3.4400000000000D+00  0.0000000000000D+00  0.0000000000000D+00
   346  3.4500000000000D+00  0.0000000000000D+00  0.0000000000000D+00
   347  3.4600000000000D+00  0.0000000000000D+00  0.0000000000000D+00
   348  3.4700000000000D+00  0.0000000000000D+00  0.0000000000000D+00
   349  3.4800000000000D+00  0.0000000000000D+00  0.0000000000000D+00
   350  3.4900000000000D+00  0.0000000000000D+00  0.0000000000000D+00
   351  3.5000000000000D+00  0.0000000000000D+00  0.0000000000000D+00
   352  3.5100000000000D+00  0.0000000000000D+00  0.0000000000000D+00
   353  3.5200000000000D+00  0.0000000000000D+00  0.0000000000000D+00
   354  3.5300000000000D+00  0.0000000000000D+00  0.0000000000000D+00
   355  3.5400000000000D+00  0.0000000000000D+00  0.0000000000000D+00
   356  3.5500000000000D+00  0.0000000000000D+00  0.0000000000000D+00
   357  3.5600000000000D+00  0.0000000000000D+00  0.0000000000000D+00
   358  3.5700000000000D+00  0.0000000000000D+00  0.0000000000000D+00
   359  3.5800000000000D+00  0.0000000000000D+00  0.0000000000000D+00
   360  3.5900000000000D+00  0.0000000000000D+00  0.0000000000000D+00
   361  3.6000000000000D+00  0.0000000000000D+00  0.0000000000000D+00
   362  3.6100000000000D+00  0.0000000000000D+00  0.0000000000000D+00
   363  3.6200000000000D+00  0.0000000000000D+00  0.0000000000000D+00
   364  3.6300000000000D+00  0.0000000000000D+00  0.0000000000000D+00
   365  3.6400000000000D+00  0.0000000000000D+00  0.0000000000000D+00
   366  3.6500000000000D+00  0.0000000000000D+00  0.0000000000000D+00
   367  3.6600000000000D+00  0.0000000000000D+00  0.0000000000000D+00
   368  3.6700000000000D+00  0.0000000000000D+00  0.0000000000000D+00
   369  3.6800000000000D+00  0.0000000000000D+00  0.0000000000000D+00
   370  3.6900000000000D+00  0.0000000000000D+00  0.0000000000000D+00
   371  3.7000000000000D+00  0.0000000000000D+00  0.0000000000000D+00
   372  3.7100000000000D+00  0.0000000000000D+00  0.0000000000000D+00
   373  3.7200000000000D+00  0.0000000000000D+00  0.0000000000000D+00
   374  3.7300000000000D+00  0.0000000000000D+00  0.0000000000000D+00
   375  3.7400000000000D+00  0.0000000000000D+00  0.0000000000000D+00
   376  3.7500000000000D+00  0.0000000000000D+00  0.0000000000000D+00
   377  3.7600000000000D+00  0.0000000000000D+00  0.0000000000000D+00
   378  3.7700000000000D+00  0.0000000000000D+00  0.0000000000000D+00
   379  3.7800000000000D+00  0.0000000000000D+00  0.0000000000000D+00
   380  3.7900000000000D+00  0.0000000000000D+00  0.0000000000000D+00
   381  3.8000000000000D+00  0.0000000000000D+00  0.0000000000000D+00
   382  3.8100000000000D+00  0.0000000000000D+00  0.0000000000000D+00
   383  3.8200000000000D+00  0.0000000000000D+00  0.0000000000000D+00
   384  3.8300000000000D+00  0.0000000000000D+00  0.0000000000000D+00
   385  3.8400000000000D+00  0.0000000000000D+00  0.0000000000000D+00
   386  3.8500000000000D+00  0.0000000000000D+00  0.0000000000000D+00
   387  3.8600000000000D+00  0.0000000000000D+00  0.0000000000000D+00
   388  3.8700000000000D+00  0.0000000000000D+00  0.0000000000000D+00
   389  3.8800000000000D+00  0.0000000000000D+00  0.0000000000000D+00
   390  3.8900000000000D+00  0.0000000000000D+00  0.0000000000000D+00
   391  3.9000000000000D+00  0.0000000000000D+00  0.0000000000000D+00
   392  3.9100000000000D+00  0.0000000000000D+00  0.0000000000000D+00
   393  3.9200000000000D+00  0.0000000000000D+00  0.0000000000000D+00
   394  3.9300000000000D+00  0.0000000000000D+00  0.0000000000000D+00
   395  3.9400000000000D+00  0.0000000000000D+00  0.0000000000000D+00
   396  3.9500000000000D+00  0.0000000000000D+00  0.0000000000000D+00
   397  3.9600000000000D+00  0.0000000000000D+00  0.0000000000000D+00
   398  3.9700000000000D+00  0.0000000000000D+00  0.0000000000000D+00
   399  3.9800000000000D+00  0.0000000000000D+00  0.0000000000000D+00
   400  3.9900000000000D+00  0.0000000000000D+00  0.0000000000000D+00
   401  4.0000000000000D+00  0.0000000000000D+00  0.0000000000000D+00
   402  4.0100000000000D+00  0.0000000000000D+00  0.0000000000000D+00
   403  4.0200000000000D+00  0.0000000000000D+00  0.0000000000000D+00
   404  4.0300000000000D+00  0.0000000000000D+00  0.0000000000000D+00
   405  4.0400000000000D+00  0.0000000000000D+00  0.0000000000000D+00
   406  4.0500000000000D+00  0.0000000000000D+00  0.0000000000000D+00
   407  4.0600000000000D+00  0.0000000000000D+00  0.0000000000000D+00
   408  4.0700000000000D+00  0.0000000000000D+00  0.0000000000000D+00
   409  4.0800000000000D+00  0.0000000000000D+00  0.0000000000000D+00
   410  4.0900000000000D+00  0.0000000000000D+00  0.0000000000000D+00
   411  4.1000000000000D+00  0.0000000000000D+00  0.0000000000000D+00
   412  4.1100000000000D+00  0.0000000000000D+00  0.0000000000000D+00
   413  4.1200000000000D+00  0.0000000000000D+00  0.0000000000000D+00
   414  4.1300000000000D+00  0.0000000000000D+00  0.0000000000000D+00
   415  4.1400000000000D+00  0.0000000000000D+00  0.0000000000000D+00
   416  4.1500000000000D+00  0.0000000000000D+00  0.0000000000000D+00
   417  4.1600000000000D+00  0.0000000000000D+00  0.0000000000000D+00
   418  4.1700000000000D+00  0.0000000000000D+00  0.0000000000000D+00
   419  4.1800000000000D+00  0.0000000000000D+00  0.0000000000000D+00
   420  4.1900000000000D+00  0.0000000000000D+00  0.0000000000000D+00
   421  4.2000000000000D+00  0.0000000000000D+00  0.0000000000000D+00
   422  4.2100000000000D+00  0.0000000000000D+00  0.0000000000000D+00
   423  4.2200000000000D+00  0.0000000000000D+00  0.0000000000000D+00