
.Version 8.11.11 of ABINIT 
.(MPI version, prepared for a x86_64_linux_gnu7.4 computer) 

.Copyright (C) 1998-2020 ABINIT group . 
 ABINIT comes with ABSOLUTELY NO WARRANTY.
 It is free software, and you are welcome to redistribute it
 under certain conditions (GNU General Public License,
 see ~abinit/COPYING or http://www.gnu.org/copyleft/gpl.txt).

 ABINIT is a project of the Universite Catholique de Louvain,
 Corning Inc. and other collaborators, see ~abinit/doc/developers/contributors.txt .
 Please read https://docs.abinit.org/theory/acknowledgments for suggested
 acknowledgments of the ABINIT effort.
 For more information, see https://www.abinit.org .

.Starting date : Sun 29 Sep 2019.
- ( at 07h10 )
  
- input  file    -> tdfpt_03.in
- output file    -> tdfpt_03_MPI24.out
- root for input  files -> tdfpt_03_MPI24i
- root for output files -> tdfpt_03_MPI24o


 Symmetries : space group Pm m m (# 47); Bravais oP (primitive ortho.)
================================================================================
 Values of the parameters that define the memory need of the present run
     intxc =       0    ionmov =       0      iscf =       7    lmnmax =       4
     lnmax =       4     mgfft =     192  mpssoang =       3    mqgrid =    3533
     natom =      29  nloc_mem =       1    nspden =       1   nspinor =       1
    nsppol =       1      nsym =       8    n1xccc =    2501    ntypat =       3
    occopt =       1   xclevel =       1
-    mband =         120        mffmem =           1         mkmem =           1
       mpw =        1405          nfft =      172800          nkpt =           4
 For the susceptibility and dielectric matrices, or tddft :
   mgfft =       120  nbnd_in_blk=    15    nfft =     30720     npw =        84
================================================================================
P This job should need less than                      63.467 Mbytes of memory.
  Rough estimation (10% accuracy) of disk space for files :
_ WF disk file :     10.293 Mbytes ; DEN or POT disk file :      1.320 Mbytes.
================================================================================

--------------------------------------------------------------------------------
------------- Echo of variables that govern the present computation ------------
--------------------------------------------------------------------------------
-
- outvars: echo of selected default values                                      
-   iomode0 =  0 , fftalg0 =312 , wfoptalg0 =  0
-
- outvars: echo of global parameters not present in the input file              
-  max_nthreads =    0
-
 -outvars: echo values of preprocessed input variables --------
-          iomode           1
            acell      7.5589045315E+00  7.5589045315E+00  5.2912331721E+01 Bohr
              amu      1.37327000E+02  4.78800000E+01  1.59994000E+01
     densfor_pred           6
             ecut      1.50000000E+01 Hartree
-          fftalg         401
           iprcel          45
              ixc           3
              kpt      1.25000000E-01  1.25000000E-01  5.00000000E-01
                       3.75000000E-01  1.25000000E-01  5.00000000E-01
                       1.25000000E-01  3.75000000E-01  5.00000000E-01
                       3.75000000E-01  3.75000000E-01  5.00000000E-01
         kptrlatt        4    0    0      0    4    0      0    0    1
          kptrlen      3.02356181E+01
P           mkmem           1
            natom          29
            nband         120
            ngfft          30      30     192
             nkpt           4
-          npband           6
-           npkpt           4
            nstep          50
             nsym           8
           ntypat           3
              occ      2.000000  2.000000  2.000000  2.000000  2.000000  2.000000
                       2.000000  2.000000  2.000000  2.000000  2.000000  2.000000
                       2.000000  2.000000  2.000000  2.000000  2.000000  2.000000
                       2.000000  2.000000  2.000000  2.000000  2.000000  2.000000
                       2.000000  2.000000  2.000000  2.000000  2.000000  2.000000
                       2.000000  2.000000  2.000000  2.000000  2.000000  2.000000
                       2.000000  2.000000  2.000000  2.000000  2.000000  2.000000
                       2.000000  2.000000  2.000000  2.000000  2.000000  2.000000
                       2.000000  2.000000  2.000000  2.000000  2.000000  2.000000
                       2.000000  2.000000  2.000000  2.000000  2.000000  2.000000
                       2.000000  2.000000  2.000000  2.000000  2.000000  2.000000
                       2.000000  2.000000  2.000000  2.000000  2.000000  2.000000
                       2.000000  2.000000  2.000000  2.000000  2.000000  2.000000
                       2.000000  2.000000  2.000000  2.000000  2.000000  2.000000
                       2.000000  2.000000  2.000000  2.000000  2.000000  2.000000
                       2.000000  2.000000  2.000000  2.000000  2.000000  2.000000
                       2.000000  2.000000  2.000000  2.000000  2.000000  2.000000
                       2.000000  2.000000  2.000000  2.000000  2.000000  2.000000
                       2.000000  2.000000  2.000000  2.000000  2.000000  2.000000
                       2.000000  2.000000  0.000000  0.000000  0.000000  0.000000
           ortalg          -2
        paral_kgb           1
           prtden           0
           shiftk      5.00000000E-01  5.00000000E-01  5.00000000E-01
          spgroup          47
           symrel      1  0  0   0  1  0   0  0  1      -1  0  0   0 -1  0   0  0 -1
                      -1  0  0   0  1  0   0  0 -1       1  0  0   0 -1  0   0  0  1
                      -1  0  0   0 -1  0   0  0  1       1  0  0   0  1  0   0  0 -1
                       1  0  0   0 -1  0   0  0 -1      -1  0  0   0  1  0   0  0  1
            tnons      0.0000000  0.0000000  0.0000000     0.0000000  0.0000000 -0.4285714
                       0.0000000  0.0000000 -0.4285714     0.0000000  0.0000000  0.0000000
                       0.0000000  0.0000000  0.0000000     0.0000000  0.0000000 -0.4285714
                       0.0000000  0.0000000 -0.4285714     0.0000000  0.0000000  0.0000000
           tolwfr      1.00000000E-22
            typat      3  3  2  3  3  2  1  3  3  3  2  1  3  3  3  2  1  3  3  3
                       2  1  3  3  3  2  3  3  2
         wfoptalg         114
              wtk        0.25000    0.25000    0.25000    0.25000
           xangst      0.0000000000E+00  0.0000000000E+00 -2.2560597003E+00
                       2.0000000000E+00  2.0000000000E+00 -1.7358821221E+00
                       0.0000000000E+00  2.0000000000E+00 -1.9382320766E+00
                       2.0000000000E+00  0.0000000000E+00  3.4528873159E-01
                       0.0000000000E+00  2.0000000000E+00 -5.5854849972E-02
                       2.0000000000E+00  2.0000000000E+00  1.7294657522E-01
                       0.0000000000E+00  0.0000000000E+00  2.1069676394E+00
                       2.0000000000E+00  2.0000000000E+00  2.1255940917E+00
                       2.0000000000E+00  0.0000000000E+00  4.1033165071E+00
                       0.0000000000E+00  2.0000000000E+00  4.0568887931E+00
                       2.0000000000E+00  2.0000000000E+00  4.0843127188E+00
                       0.0000000000E+00  0.0000000000E+00  6.0394536284E+00
                       2.0000000000E+00  2.0000000000E+00  6.0414127393E+00
                       2.0000000000E+00  0.0000000000E+00  8.0000000000E+00
                       0.0000000000E+00  2.0000000000E+00  8.0000000000E+00
                       2.0000000000E+00  2.0000000000E+00  8.0000000000E+00
                       0.0000000000E+00  0.0000000000E+00  9.9605463720E+00
                       2.0000000000E+00  2.0000000000E+00  9.9585872606E+00
                       2.0000000000E+00  0.0000000000E+00  1.1896683493E+01
                       0.0000000000E+00  2.0000000000E+00  1.1943111207E+01
                       2.0000000000E+00  2.0000000000E+00  1.1915687281E+01
                       0.0000000000E+00  0.0000000000E+00  1.3893032361E+01
                       2.0000000000E+00  2.0000000000E+00  1.3874405908E+01
                       2.0000000000E+00  0.0000000000E+00  1.5654711268E+01
                       0.0000000000E+00  2.0000000000E+00  1.6055854850E+01
                       2.0000000000E+00  2.0000000000E+00  1.5827053425E+01
                       0.0000000000E+00  0.0000000000E+00  1.8256059700E+01
                       2.0000000000E+00  2.0000000000E+00  1.7735882122E+01
                       0.0000000000E+00  2.0000000000E+00  1.7938232077E+01
            xcart      0.0000000000E+00  0.0000000000E+00 -4.2633349730E+00
                       3.7794522658E+00  3.7794522658E+00 -3.2803418097E+00
                       0.0000000000E+00  3.7794522658E+00 -3.6627278067E+00
                       3.7794522658E+00  0.0000000000E+00  6.5250113947E-01
                       0.0000000000E+00  3.7794522658E+00 -1.0555036964E-01
                       3.7794522658E+00  3.7794522658E+00  3.2682166278E-01
                       0.0000000000E+00  0.0000000000E+00  3.9815918094E+00
                       3.7794522658E+00  3.7794522658E+00  4.0167907030E+00
                       3.7794522658E+00  0.0000000000E+00  7.7541444349E+00
                       0.0000000000E+00  3.7794522658E+00  7.6664087705E+00
                       3.7794522658E+00  3.7794522658E+00  7.7182324796E+00
                       0.0000000000E+00  0.0000000000E+00  1.1412913350E+01
                       3.7794522658E+00  3.7794522658E+00  1.1416615533E+01
                       3.7794522658E+00  0.0000000000E+00  1.5117809063E+01
                       0.0000000000E+00  3.7794522658E+00  1.5117809063E+01
                       3.7794522658E+00  3.7794522658E+00  1.5117809063E+01
                       0.0000000000E+00  0.0000000000E+00  1.8822704777E+01
                       3.7794522658E+00  3.7794522658E+00  1.8819002593E+01
                       3.7794522658E+00  0.0000000000E+00  2.2481473692E+01
                       0.0000000000E+00  3.7794522658E+00  2.2569209355E+01
                       3.7794522658E+00  3.7794522658E+00  2.2517385647E+01
                       0.0000000000E+00  0.0000000000E+00  2.6254026317E+01
                       3.7794522658E+00  3.7794522658E+00  2.6218827423E+01
                       3.7794522658E+00  0.0000000000E+00  2.9583116986E+01
                       0.0000000000E+00  3.7794522658E+00  3.0341168496E+01
                       3.7794522658E+00  3.7794522658E+00  2.9908796464E+01
                       0.0000000000E+00  0.0000000000E+00  3.4498953099E+01
                       3.7794522658E+00  3.7794522658E+00  3.3515959935E+01
                       0.0000000000E+00  3.7794522658E+00  3.3898345933E+01
             xred      0.0000000000E+00  0.0000000000E+00 -8.0573560725E-02
                       5.0000000000E-01  5.0000000000E-01 -6.1995790074E-02
                       0.0000000000E+00  5.0000000000E-01 -6.9222574163E-02
                       5.0000000000E-01  0.0000000000E+00  1.2331740414E-02
                       0.0000000000E+00  5.0000000000E-01 -1.9948160704E-03
                       5.0000000000E-01  5.0000000000E-01  6.1766634006E-03
                       0.0000000000E+00  0.0000000000E+00  7.5248844266E-02
                       5.0000000000E-01  5.0000000000E-01  7.5914074704E-02
                       5.0000000000E-01  0.0000000000E+00  1.4654701811E-01
                       0.0000000000E+00  5.0000000000E-01  1.4488888547E-01
                       5.0000000000E-01  5.0000000000E-01  1.4586831139E-01
                       0.0000000000E+00  0.0000000000E+00  2.1569477244E-01
                       5.0000000000E-01  5.0000000000E-01  2.1576474069E-01
                       5.0000000000E-01  0.0000000000E+00  2.8571428571E-01
                       0.0000000000E+00  5.0000000000E-01  2.8571428571E-01
                       5.0000000000E-01  5.0000000000E-01  2.8571428571E-01
                       0.0000000000E+00  0.0000000000E+00  3.5573379900E-01
                       5.0000000000E-01  5.0000000000E-01  3.5566383074E-01
                       5.0000000000E-01  0.0000000000E+00  4.2488155333E-01
                       0.0000000000E+00  5.0000000000E-01  4.2653968595E-01
                       5.0000000000E-01  5.0000000000E-01  4.2556026005E-01
                       0.0000000000E+00  0.0000000000E+00  4.9617972717E-01
                       5.0000000000E-01  5.0000000000E-01  4.9551449672E-01
                       5.0000000000E-01  0.0000000000E+00  5.5909683100E-01
                       0.0000000000E+00  5.0000000000E-01  5.7342338750E-01
                       5.0000000000E-01  5.0000000000E-01  5.6525190804E-01
                       0.0000000000E+00  0.0000000000E+00  6.5200213215E-01
                       5.0000000000E-01  5.0000000000E-01  6.3342436149E-01
                       0.0000000000E+00  5.0000000000E-01  6.4065114559E-01
            znucl       56.00000   22.00000    8.00000

================================================================================

 chkinp: Checking input parameters for consistency.

 chkinp: WARNING -
   Chksymbreak=1 . Found potentially symmetry-breaking value of tnons, 
   which is neither a rational fraction in 1/8th nor in 1/12th :
   for the symmetry number    2
   symrel is  -1  0  0  0 -1  0  0  0 -1
   tnons is     0.000000E+00    0.000000E+00   -4.285714E-01
   Please, read the description of the input variable chksymbreak,
   then, if you feel confident, you might switch it to zero, or consult with the forum.

 chkinp: WARNING -
   Chksymbreak=1 . Found potentially symmetry-breaking value of tnons, 
   which is neither a rational fraction in 1/8th nor in 1/12th :
   for the symmetry number    3
   symrel is  -1  0  0  0  1  0  0  0 -1
   tnons is     0.000000E+00    0.000000E+00   -4.285714E-01
   Please, read the description of the input variable chksymbreak,
   then, if you feel confident, you might switch it to zero, or consult with the forum.

 chkinp: WARNING -
   Chksymbreak=1 . Found potentially symmetry-breaking value of tnons, 
   which is neither a rational fraction in 1/8th nor in 1/12th :
   for the symmetry number    6
   symrel is   1  0  0  0  1  0  0  0 -1
   tnons is     0.000000E+00    0.000000E+00   -4.285714E-01
   Please, read the description of the input variable chksymbreak,
   then, if you feel confident, you might switch it to zero, or consult with the forum.

 chkinp: WARNING -
   Chksymbreak=1 . Found potentially symmetry-breaking value of tnons, 
   which is neither a rational fraction in 1/8th nor in 1/12th :
   for the symmetry number    7
   symrel is   1  0  0  0 -1  0  0  0 -1
   tnons is     0.000000E+00    0.000000E+00   -4.285714E-01
   Please, read the description of the input variable chksymbreak,
   then, if you feel confident, you might switch it to zero, or consult with the forum.

================================================================================
== DATASET  1 ==================================================================
-   nproc =   24

 Exchange-correlation functional for the present dataset will be:
  LDA: old Teter (4/91) fit to Ceperley-Alder data - ixc=3

 Real(R)+Recip(G) space primitive vectors, cartesian coordinates (Bohr,Bohr^-1):
 R(1)=  7.5589045  0.0000000  0.0000000  G(1)=  0.1322943  0.0000000  0.0000000
 R(2)=  0.0000000  7.5589045  0.0000000  G(2)=  0.0000000  0.1322943  0.0000000
 R(3)=  0.0000000  0.0000000 52.9123317  G(3)=  0.0000000  0.0000000  0.0188992
 Unit cell volume ucvol=  3.0232539E+03 bohr^3
 Angles (23,13,12)=  9.00000000E+01  9.00000000E+01  9.00000000E+01 degrees

 getcut: wavevector=  0.0000  0.0000  0.0000  ngfft=  30  30 192
         ecut(hartree)=     15.000   => boxcut(ratio)=   2.08129

--- Pseudopotential description ------------------------------------------------
- pspini: atom type   1  psp file is /home/buildbot/ABINIT/cronos2_gnu_7.4_paral/trunk__magcon/tests/Psps_for_tests/56ba.psp_mod
- pspatm: opening atomic psp file    /home/buildbot/ABINIT/cronos2_gnu_7.4_paral/trunk__magcon/tests/Psps_for_tests/56ba.psp_mod
- Barium.ion 5s2.5p6.6s0.5d0 rcs=rcp=rcd=1.7 ecut=22/28
- 56.00000  10.00000    940000                znucl, zion, pspdat
    4    3    2    2      2001   0.00000      pspcod,pspxc,lmax,lloc,mmax,r2well
    0   0.000   0.000    2   1.6965489        l,e99.0,e99.9,nproj,rcpsp
   0.00000000   0.00000000   0.00000000   0.00000000     rms, ekb1, ekb2, epsatm
    1   0.000   0.000    2   1.6965489        l,e99.0,e99.9,nproj,rcpsp
   0.00000000   0.00000000   0.00000000   0.00000000     rms, ekb1, ekb2, epsatm
    2   0.000   0.000    0   1.6965489        l,e99.0,e99.9,nproj,rcpsp
   0.00000000   0.00000000   0.00000000   0.00000000     rms, ekb1, ekb2, epsatm
    0.00000000000000    0.00000000000000    0.00000000000000   rchrg,fchrg,qchrg
  pspatm : epsatm=   43.25917021
         --- l  ekb(1:nproj) -->
             0   -9.646692   27.266828
             1   -6.938476   21.148499
 pspatm: atomic psp has been read  and splines computed

- pspini: atom type   2  psp file is /home/buildbot/ABINIT/cronos2_gnu_7.4_paral/trunk__magcon/tests/Psps_for_tests/22ti.psp_mod
- pspatm: opening atomic psp file    /home/buildbot/ABINIT/cronos2_gnu_7.4_paral/trunk__magcon/tests/Psps_for_tests/22ti.psp_mod
- Titane.ion 3s2.3p6.4s0.3d2 rcd=1.65, rcs=rc0=1.25, ecut 32/54
- 22.00000  12.00000    940000                znucl, zion, pspdat
    4    3    2    2      2001   0.00000      pspcod,pspxc,lmax,lloc,mmax,r2well
    0   0.000   0.000    2   1.2533577        l,e99.0,e99.9,nproj,rcpsp
   0.00000000   0.00000000   0.00000000   0.00000000     rms, ekb1, ekb2, epsatm
    1   0.000   0.000    2   1.2533577        l,e99.0,e99.9,nproj,rcpsp
   0.00000000   0.00000000   0.00000000   0.00000000     rms, ekb1, ekb2, epsatm
    2   0.000   0.000    0   1.6491622        l,e99.0,e99.9,nproj,rcpsp
   0.00000000   0.00000000   0.00000000   0.00000000     rms, ekb1, ekb2, epsatm
    0.00000000000000    0.00000000000000    0.00000000000000   rchrg,fchrg,qchrg
  pspatm : epsatm=    4.67708954
         --- l  ekb(1:nproj) -->
             0    9.517316   -2.344682
             1    5.011406   -0.741179
 pspatm: atomic psp has been read  and splines computed

- pspini: atom type   3  psp file is /home/buildbot/ABINIT/cronos2_gnu_7.4_paral/trunk__magcon/tests/Psps_for_tests/8o.psp_mod
- pspatm: opening atomic psp file    /home/buildbot/ABINIT/cronos2_gnu_7.4_paral/trunk__magcon/tests/Psps_for_tests/8o.psp_mod
- 1.65bohr 35 hartree exncc psp for oxygen with core 19 june 1992
-  8.00000   6.00000    920619                znucl, zion, pspdat
    4    3    1    1      2001   0.00000      pspcod,pspxc,lmax,lloc,mmax,r2well
    0   0.000   0.000    2   1.6491622        l,e99.0,e99.9,nproj,rcpsp
   0.00000000   0.00000000   0.00000000   0.00000000     rms, ekb1, ekb2, epsatm
    1   0.000   0.000    0   1.6491622        l,e99.0,e99.9,nproj,rcpsp
   0.00000000   0.00000000   0.00000000   0.00000000     rms, ekb1, ekb2, epsatm
    1.00000000000000    0.95000909444395    0.44408665956870   rchrg,fchrg,qchrg
  pspatm : epsatm=    1.15255884
         --- l  ekb(1:nproj) -->
             0    7.721978   -1.904542
 pspatm: atomic psp has been read  and splines computed

   5.25531891E+04                                ecore*ucvol(ha*bohr**3)
--------------------------------------------------------------------------------

_setup2: Arith. and geom. avg. npw (full set) are    1399.000    1398.994

================================================================================

     iter   Etot(hartree)      deltaE(h)  residm     vres2
 ETOT  1  -787.56806072793    -7.876E+02 1.871E-02 7.805E+04
 ETOT  2  -791.22885573402    -3.661E+00 3.289E-03 8.040E+02
 ETOT  3  -791.46093339849    -2.321E-01 9.920E-04 5.096E+01
 ETOT  4  -791.51319818163    -5.226E-02 5.895E-04 2.813E+01
 ETOT  5  -791.53452073142    -2.132E-02 4.294E-04 5.493E+00
 ETOT  6  -791.53619954552    -1.679E-03 4.250E-04 1.919E+00
 ETOT  7  -791.53618300636     1.654E-05 4.139E-04 7.185E-01
 ETOT  8  -791.53663967562    -4.567E-04 1.320E-04 6.542E-02
 ETOT  9  -791.53669936974    -5.969E-05 1.347E-04 3.460E-02
 ETOT 10  -791.53670993130    -1.056E-05 6.124E-05 4.940E-03
 ETOT 11  -791.53671063264    -7.013E-07 5.861E-05 2.301E-03
 ETOT 12  -791.53671176136    -1.129E-06 1.672E-05 2.321E-04
 ETOT 13  -791.53671187546    -1.141E-07 3.426E-05 3.895E-05
 ETOT 14  -791.53671194173    -6.626E-08 1.508E-05 2.293E-05
 ETOT 15  -791.53671195374    -1.201E-08 1.999E-05 3.594E-06
 ETOT 16  -791.53671195483    -1.084E-09 1.655E-05 1.697E-06
 ETOT 17  -791.53671195567    -8.422E-10 7.275E-06 3.736E-07
 ETOT 18  -791.53671195580    -1.303E-10 9.791E-06 1.898E-08
 ETOT 19  -791.53671195565     1.485E-10 1.270E-05 7.455E-09
 ETOT 20  -791.53671195577    -1.219E-10 5.943E-06 1.476E-09
 ETOT 21  -791.53671195584    -6.833E-11 5.311E-06 2.498E-10
 ETOT 22  -791.53671195592    -7.401E-11 8.869E-06 5.872E-11
 ETOT 23  -791.53671195571     2.079E-10 2.132E-06 1.634E-11
 ETOT 24  -791.53671195595    -2.442E-10 5.362E-06 5.039E-12
 ETOT 25  -791.53671195568     2.730E-10 1.220E-06 2.454E-12
 ETOT 26  -791.53671195588    -1.975E-10 3.212E-06 1.540E-12
 ETOT 27  -791.53671195575     1.262E-10 1.275E-06 7.913E-13
 ETOT 28  -791.53671195578    -2.910E-11 1.214E-06 2.545E-13
 ETOT 29  -791.53671195577     6.139E-12 1.686E-06 7.569E-14
 ETOT 30  -791.53671195570     7.594E-11 1.042E-06 2.396E-14
 ETOT 31  -791.53671195581    -1.082E-10 1.380E-06 4.800E-15
 ETOT 32  -791.53671195580     9.550E-12 9.682E-07 1.547E-15
 ETOT 33  -791.53671195576     3.615E-11 4.499E-07 3.846E-16
 ETOT 34  -791.53671195572     4.104E-11 7.296E-07 1.532E-16
 ETOT 35  -791.53671195561     1.065E-10 5.199E-07 9.238E-17
 ETOT 36  -791.53671195576    -1.517E-10 6.004E-07 3.973E-17
 ETOT 37  -791.53671195554     2.234E-10 5.719E-07 1.495E-17
 ETOT 38  -791.53671195569    -1.464E-10 4.798E-07 4.206E-18
 ETOT 39  -791.53671195569    -7.049E-12 3.903E-07 1.448E-18
 ETOT 40  -791.53671195562     7.844E-11 2.149E-07 3.430E-19
 ETOT 41  -791.53671195562    -2.956E-12 2.768E-07 1.636E-19
 ETOT 42  -791.53671195567    -5.286E-11 5.093E-07 4.817E-20
 ETOT 43  -791.53671195568    -1.205E-11 2.047E-07 1.314E-20
 ETOT 44  -791.53671195568     1.933E-12 2.398E-07 3.516E-21
 ETOT 45  -791.53671195567     1.262E-11 5.970E-08 1.974E-21
 ETOT 46  -791.53671195568    -6.139E-12 4.813E-08 1.206E-21
 ETOT 47  -791.53671195567     8.981E-12 4.496E-08 5.290E-22
 ETOT 48  -791.53671195567    -1.819E-12 4.389E-08 2.928E-22
 ETOT 49  -791.53671195568    -7.390E-12 4.302E-08 4.062E-22
 ETOT 50  -791.53671195567     4.093E-12 4.249E-08 3.123E-22

 Cartesian components of stress tensor (hartree/bohr^3)
  sigma(1 1)=  7.13508309E-03  sigma(3 2)=  0.00000000E+00
  sigma(2 2)=  7.55157965E-03  sigma(3 1)=  0.00000000E+00
  sigma(3 3)=  6.95795080E-03  sigma(2 1)=  0.00000000E+00


 scprqt:  WARNING -
  nstep=   50 was not enough SCF cycles to converge;
  maximum residual=  4.249E-08 exceeds tolwfr=  1.000E-22

 Integrated electronic density in atomic spheres:
 ------------------------------------------------
 Atom  Sphere_radius  Integrated_density
    1        2.00000          5.89938897
    2        2.00000          6.14836333
    3        2.00000          9.07141387
    4        2.00000          6.04981198
    5        2.00000          6.19288653
    6        2.00000          9.17037676
    7        2.00000          5.25453804
    8        2.00000          6.11602551
    9        2.00000          6.10083809
   10        2.00000          6.09439784
   11        2.00000          9.15502637
   12        2.00000          5.24764050
   13        2.00000          6.11558324
   14        2.00000          6.09808903
   15        2.00000          6.09743815
   16        2.00000          9.15220996
   17        2.00000          5.22684833
   18        2.00000          6.12657310
   19        2.00000          6.07512651
   20        2.00000          6.08570059
   21        2.00000          9.14026853
   22        2.00000          5.27368414
   23        2.00000          6.14333301
   24        2.00000          6.03895456
   25        2.00000          6.19903735
   26        2.00000          9.14779655
   27        2.00000          5.92108669
   28        2.00000          6.14312086
   29        2.00000          9.08735520
================================================================================

 ----iterations are completed or convergence reached----

 Mean square residual over all n,k,spin=   11.010E-11; max=  42.488E-09
 reduced coordinates (array xred) for   29 atoms
       0.000000000000      0.000000000000     -0.080573560721
       0.500000000000      0.500000000000     -0.061995790064
       0.000000000000      0.500000000000     -0.069222574162
       0.500000000000      0.000000000000      0.012331740423
       0.000000000000      0.500000000000     -0.001994816070
       0.500000000000      0.500000000000      0.006176663397
       0.000000000000      0.000000000000      0.075248844266
       0.500000000000      0.500000000000      0.075914074707
       0.500000000000      0.000000000000      0.146547018105
       0.000000000000      0.500000000000      0.144888885476
       0.500000000000      0.500000000000      0.145868311384
       0.000000000000      0.000000000000      0.215694772438
       0.500000000000      0.500000000000      0.215764740693
       0.500000000000      0.000000000000      0.285714285716
       0.000000000000      0.500000000000      0.285714285716
       0.500000000000      0.500000000000      0.285714285716
       0.000000000000      0.000000000000      0.355733798995
       0.500000000000      0.500000000000      0.355663830740
       0.500000000000      0.000000000000      0.424881553328
       0.000000000000      0.500000000000      0.426539685957
       0.500000000000      0.500000000000      0.425560260049
       0.000000000000      0.000000000000      0.496179727167
       0.500000000000      0.500000000000      0.495514496725
       0.500000000000      0.000000000000      0.559096831010
       0.000000000000      0.500000000000      0.573423387503
       0.500000000000      0.500000000000      0.565251908036
       0.000000000000      0.000000000000      0.652002132154
       0.500000000000      0.500000000000      0.633424361497
       0.000000000000      0.500000000000      0.640651145595
 rms dE/dt=  7.7121E-01; max dE/dt=  3.1299E+00; dE/dt below (all hartree)
    1       0.000000000000      0.000000000000     -0.106353458600
    2       0.000000000000      0.000000000000      2.618999516018
    3       0.000000000000      0.000000000000      2.717783852734
    4       0.000000000000      0.000000000000      0.455787058499
    5       0.000000000000      0.000000000000     -3.129923350399
    6       0.000000000000      0.000000000000     -1.141831001272
    7       0.000000000000      0.000000000000      0.081417824455
    8       0.000000000000      0.000000000000     -0.504324363239
    9       0.000000000000      0.000000000000      0.174904075967
   10       0.000000000000      0.000000000000     -0.066720861752
   11       0.000000000000      0.000000000000      0.068513261677
   12       0.000000000000      0.000000000000      0.008168188342
   13       0.000000000000      0.000000000000     -0.082818960012
   14       0.000000000000      0.000000000000      0.000000000000
   15       0.000000000000      0.000000000000      0.000000000000
   16       0.000000000000      0.000000000000      0.000000000000
   17       0.000000000000      0.000000000000     -0.008168188342
   18       0.000000000000      0.000000000000      0.082818960012
   19       0.000000000000      0.000000000000     -0.174904075967
   20       0.000000000000      0.000000000000      0.066720861752
   21       0.000000000000      0.000000000000     -0.068513261677
   22       0.000000000000      0.000000000000     -0.081417824455
   23       0.000000000000      0.000000000000      0.504324363239
   24       0.000000000000      0.000000000000     -0.455787058499
   25       0.000000000000      0.000000000000      3.129923350399
   26       0.000000000000      0.000000000000      1.141831001272
   27       0.000000000000      0.000000000000      0.106353458600
   28       0.000000000000      0.000000000000     -2.618999516018
   29       0.000000000000      0.000000000000     -2.717783852734

 cartesian coordinates (angstrom) at end:
    1      0.00000000000000     0.00000000000000    -2.25605970019043
    2      2.00000000000000     2.00000000000000    -1.73588212178707
    3      0.00000000000000     2.00000000000000    -1.93823207654802
    4      2.00000000000000     0.00000000000000     0.34528873183260
    5      0.00000000000000     2.00000000000000    -0.05585484996115
    6      2.00000000000000     2.00000000000000     0.17294657511612
    7      0.00000000000000     0.00000000000000     2.10696763944310
    8      2.00000000000000     2.00000000000000     2.12559409180964
    9      2.00000000000000     0.00000000000000     4.10331650693177
   10      0.00000000000000     2.00000000000000     4.05688879332121
   11      2.00000000000000     2.00000000000000     4.08431271875048
   12      0.00000000000000     0.00000000000000     6.03945362827379
   13      2.00000000000000     2.00000000000000     6.04141273940401
   14      2.00000000000000     0.00000000000000     8.00000000006078
   15      0.00000000000000     2.00000000000000     8.00000000006078
   16      2.00000000000000     2.00000000000000     8.00000000006078
   17      0.00000000000000     0.00000000000000     9.96054637184776
   18      2.00000000000000     2.00000000000000     9.95858726071755
   19      2.00000000000000     0.00000000000000    11.89668349318979
   20      0.00000000000000     2.00000000000000    11.94311120680034
   21      2.00000000000000     2.00000000000000    11.91568728137107
   22      0.00000000000000     0.00000000000000    13.89303236067846
   23      2.00000000000000     2.00000000000000    13.87440590831192
   24      2.00000000000000     0.00000000000000    15.65471126828896
   25      0.00000000000000     2.00000000000000    16.05585485008271
   26      2.00000000000000     2.00000000000000    15.82705342500544
   27      0.00000000000000     0.00000000000000    18.25605970031198
   28      2.00000000000000     2.00000000000000    17.73588212190862
   29      0.00000000000000     2.00000000000000    17.93823207666958

 cartesian forces (hartree/bohr) at end:
    1      0.00000000000000    -0.00000000000000     0.00200999379806
    2      0.00000000000000    -0.00000000000000    -0.04949695904232
    3      0.00000000000000    -0.00000000000000    -0.05136390259788
    4      0.00000000000000    -0.00000000000000    -0.00861400440458
    5      0.00000000000000    -0.00000000000000     0.05915300363089
    6      0.00000000000000    -0.00000000000000     0.02157967649767
    7      0.00000000000000    -0.00000000000000    -0.00153873060980
    8     -0.00000000000000    -0.00000000000000     0.00953131995581
    9      0.00000000000000    -0.00000000000000    -0.00330554466754
   10      0.00000000000000    -0.00000000000000     0.00126096997773
   11      0.00000000000000    -0.00000000000000    -0.00129484487734
   12      0.00000000000000    -0.00000000000000    -0.00015437211094
   13      0.00000000000000    -0.00000000000000     0.00156521093134
   14      0.00000000000000    -0.00000000000000    -0.00000000000000
   15      0.00000000000000    -0.00000000000000    -0.00000000000000
   16      0.00000000000000    -0.00000000000000    -0.00000000000000
   17      0.00000000000000    -0.00000000000000     0.00015437211094
   18      0.00000000000000    -0.00000000000000    -0.00156521093134
   19      0.00000000000000    -0.00000000000000     0.00330554466754
   20      0.00000000000000    -0.00000000000000    -0.00126096997773
   21      0.00000000000000    -0.00000000000000     0.00129484487734
   22      0.00000000000000    -0.00000000000000     0.00153873060980
   23      0.00000000000000    -0.00000000000000    -0.00953131995581
   24      0.00000000000000    -0.00000000000000     0.00861400440458
   25      0.00000000000000    -0.00000000000000    -0.05915300363089
   26      0.00000000000000    -0.00000000000000    -0.02157967649767
   27      0.00000000000000    -0.00000000000000    -0.00200999379806
   28      0.00000000000000    -0.00000000000000     0.04949695904232
   29      0.00000000000000    -0.00000000000000     0.05136390259788
 frms,max,avg= 1.4575276E-02 5.9153004E-02   0.000E+00  0.000E+00  0.000E+00 h/b

 cartesian forces (eV/Angstrom) at end:
    1      0.00000000000000    -0.00000000000000     0.10335802810001
    2      0.00000000000000    -0.00000000000000    -2.54523575569703
    3      0.00000000000000    -0.00000000000000    -2.64123784518722
    4      0.00000000000000    -0.00000000000000    -0.44294987883023
    5      0.00000000000000    -0.00000000000000     3.04176949071777
    6      0.00000000000000    -0.00000000000000     1.10967148853116
    7      0.00000000000000    -0.00000000000000    -0.07912470265313
    8     -0.00000000000000    -0.00000000000000     0.49012013707316
    9      0.00000000000000    -0.00000000000000    -0.16997792677914
   10      0.00000000000000    -0.00000000000000     0.06484167787838
   11      0.00000000000000    -0.00000000000000    -0.06658359510646
   12      0.00000000000000    -0.00000000000000    -0.00793813244365
   13      0.00000000000000    -0.00000000000000     0.08048637542036
   14      0.00000000000000    -0.00000000000000    -0.00000000000000
   15      0.00000000000000    -0.00000000000000    -0.00000000000000
   16      0.00000000000000    -0.00000000000000    -0.00000000000000
   17      0.00000000000000    -0.00000000000000     0.00793813244365
   18      0.00000000000000    -0.00000000000000    -0.08048637542036
   19      0.00000000000000    -0.00000000000000     0.16997792677914
   20      0.00000000000000    -0.00000000000000    -0.06484167787838
   21      0.00000000000000    -0.00000000000000     0.06658359510646
   22      0.00000000000000    -0.00000000000000     0.07912470265313
   23      0.00000000000000    -0.00000000000000    -0.49012013707316
   24      0.00000000000000    -0.00000000000000     0.44294987883023
   25      0.00000000000000    -0.00000000000000    -3.04176949071777
   26      0.00000000000000    -0.00000000000000    -1.10967148853116
   27      0.00000000000000    -0.00000000000000    -0.10335802810001
   28      0.00000000000000    -0.00000000000000     2.54523575569703
   29      0.00000000000000    -0.00000000000000     2.64123784518722
 frms,max,avg= 7.4949074E-01 3.0417695E+00   0.000E+00  0.000E+00  0.000E+00 e/A
 length scales=  7.558904531543  7.558904531543 52.912331720798 bohr
              =  4.000000000000  4.000000000000 28.000000000000 angstroms
 prteigrs : about to open file tdfpt_03_MPI24o_EIG
 Fermi (or HOMO) energy (hartree) =   0.21489   Average Vxc (hartree)=  -0.36465
 Eigenvalues (hartree) for nkpt=   4  k points:
 kpt#   1, nband=120, wtk=  0.25000, kpt=  0.1250  0.1250  0.5000 (reduced coord)
  -1.97276   -1.97269   -1.95900   -1.95887   -1.95430   -1.95388   -1.95368   -1.17650
  -1.17635   -1.16931   -1.16930   -1.15894   -1.15892   -1.15881   -1.15880   -1.15687
  -1.15682   -1.15236   -1.15161   -1.15082   -1.15041   -1.15038   -1.15025   -1.15022
  -1.15016   -1.15001   -1.14954   -1.14953   -0.73095   -0.72952   -0.72750   -0.72556
  -0.56434   -0.56432   -0.53188   -0.53159   -0.52758   -0.52622   -0.52549   -0.51101
  -0.51034   -0.50647   -0.50466   -0.50399   -0.50309   -0.50124   -0.48543   -0.48539
  -0.45810   -0.45808   -0.19458   -0.19446   -0.19243   -0.19141   -0.19136   -0.19071
  -0.18760   -0.18724   -0.18427   -0.18283   -0.17968   -0.17925   -0.00201   -0.00177
   0.01279    0.02355    0.02648    0.02803    0.04557    0.05305    0.05544    0.05859
   0.05940    0.06479    0.06495    0.06709    0.07115    0.07367    0.07415    0.07677
   0.08124    0.08155    0.08481    0.09030    0.09300    0.09550    0.09878    0.10109
   0.10281    0.10767    0.10866    0.11669    0.11998    0.12183    0.12605    0.13231
   0.13328    0.13400    0.13611    0.13811    0.14157    0.14225    0.14538    0.14727
   0.15018    0.15267    0.15576    0.15944    0.16210    0.16480    0.17201    0.17267
   0.17655    0.17680    0.19471    0.19479    0.29925    0.30113    0.30985    0.31102
 prteigrs : prtvol=0 or 1, do not print more k-points.


--------------------------------------------------------------------------------
 Components of total free energy (in Hartree) :

    Kinetic energy  =  3.54782876475894E+02
    Hartree energy  =  1.19765137978027E+03
    XC energy       = -1.32029491498205E+02
    Ewald energy    =  4.50522925486291E+02
    PspCore energy  =  1.73829889727092E+01
    Loc. psp. energy= -2.80469333470896E+03
    NL   psp  energy=  1.24845943536326E+02
    >>>>>>>>> Etotal= -7.91536711955672E+02

 Other information on the energy :
    Total energy(eV)= -2.15388093083080E+04 ; Band energy (Ha)=  -9.4455834641E+01
--------------------------------------------------------------------------------



 Cartesian components of stress tensor (hartree/bohr^3)
  sigma(1 1)=  7.13508309E-03  sigma(3 2)=  0.00000000E+00
  sigma(2 2)=  7.55157965E-03  sigma(3 1)=  0.00000000E+00
  sigma(3 3)=  6.95795080E-03  sigma(2 1)=  0.00000000E+00

-Cartesian components of stress tensor (GPa)         [Pressure= -2.1227E+02 GPa]
- sigma(1 1)=  2.09921357E+02  sigma(3 2)=  0.00000000E+00
- sigma(2 2)=  2.22175107E+02  sigma(3 1)=  0.00000000E+00
- sigma(3 3)=  2.04709946E+02  sigma(2 1)=  0.00000000E+00

== END DATASET(S) ==============================================================
================================================================================
  
 -outvars: echo values of variables after computation  --------
-          iomode           1
            acell      7.5589045315E+00  7.5589045315E+00  5.2912331721E+01 Bohr
              amu      1.37327000E+02  4.78800000E+01  1.59994000E+01
     densfor_pred           6
             ecut      1.50000000E+01 Hartree
           etotal     -7.9153671196E+02
            fcart      7.1973657205E-33 -0.0000000000E+00  2.0099937981E-03
                       7.1973657205E-33 -0.0000000000E+00 -4.9496959042E-02
                       7.1973657205E-33 -0.0000000000E+00 -5.1363902598E-02
                       7.1973657205E-33 -0.0000000000E+00 -8.6140044046E-03
                       7.1973657205E-33 -0.0000000000E+00  5.9153003631E-02
                       7.1973657205E-33 -0.0000000000E+00  2.1579676498E-02
                       7.1973657205E-33 -0.0000000000E+00 -1.5387306098E-03
                      -2.0152624017E-31 -0.0000000000E+00  9.5313199558E-03
                       7.1973657205E-33 -0.0000000000E+00 -3.3055446675E-03
                       7.1973657205E-33 -0.0000000000E+00  1.2609699777E-03
                       7.1973657205E-33 -0.0000000000E+00 -1.2948448773E-03
                       7.1973657205E-33 -0.0000000000E+00 -1.5437211094E-04
                       7.1973657205E-33 -0.0000000000E+00  1.5652109313E-03
                       7.1973657205E-33 -0.0000000000E+00 -4.7854440717E-19
                       7.1973657205E-33 -0.0000000000E+00 -4.7854440717E-19
                       7.1973657205E-33 -0.0000000000E+00 -4.7854440717E-19
                       7.1973657205E-33 -0.0000000000E+00  1.5437211094E-04
                       7.1973657205E-33 -0.0000000000E+00 -1.5652109313E-03
                       7.1973657205E-33 -0.0000000000E+00  3.3055446675E-03
                       7.1973657205E-33 -0.0000000000E+00 -1.2609699777E-03
                       7.1973657205E-33 -0.0000000000E+00  1.2948448773E-03
                       7.1973657205E-33 -0.0000000000E+00  1.5387306098E-03
                       7.1973657205E-33 -0.0000000000E+00 -9.5313199558E-03
                       7.1973657205E-33 -0.0000000000E+00  8.6140044046E-03
                       7.1973657205E-33 -0.0000000000E+00 -5.9153003631E-02
                       7.1973657205E-33 -0.0000000000E+00 -2.1579676498E-02
                       7.1973657205E-33 -0.0000000000E+00 -2.0099937981E-03
                       7.1973657205E-33 -0.0000000000E+00  4.9496959042E-02
                       7.1973657205E-33 -0.0000000000E+00  5.1363902598E-02
-          fftalg         401
           iprcel          45
              ixc           3
              kpt      1.25000000E-01  1.25000000E-01  5.00000000E-01
                       3.75000000E-01  1.25000000E-01  5.00000000E-01
                       1.25000000E-01  3.75000000E-01  5.00000000E-01
                       3.75000000E-01  3.75000000E-01  5.00000000E-01
         kptrlatt        4    0    0      0    4    0      0    0    1
          kptrlen      3.02356181E+01
P           mkmem           1
            natom          29
            nband         120
            ngfft          30      30     192
             nkpt           4
-          npband           6
-           npkpt           4
            nstep          50
             nsym           8
           ntypat           3
              occ      2.000000  2.000000  2.000000  2.000000  2.000000  2.000000
                       2.000000  2.000000  2.000000  2.000000  2.000000  2.000000
                       2.000000  2.000000  2.000000  2.000000  2.000000  2.000000
                       2.000000  2.000000  2.000000  2.000000  2.000000  2.000000
                       2.000000  2.000000  2.000000  2.000000  2.000000  2.000000
                       2.000000  2.000000  2.000000  2.000000  2.000000  2.000000
                       2.000000  2.000000  2.000000  2.000000  2.000000  2.000000
                       2.000000  2.000000  2.000000  2.000000  2.000000  2.000000
                       2.000000  2.000000  2.000000  2.000000  2.000000  2.000000
                       2.000000  2.000000  2.000000  2.000000  2.000000  2.000000
                       2.000000  2.000000  2.000000  2.000000  2.000000  2.000000
                       2.000000  2.000000  2.000000  2.000000  2.000000  2.000000
                       2.000000  2.000000  2.000000  2.000000  2.000000  2.000000
                       2.000000  2.000000  2.000000  2.000000  2.000000  2.000000
                       2.000000  2.000000  2.000000  2.000000  2.000000  2.000000
                       2.000000  2.000000  2.000000  2.000000  2.000000  2.000000
                       2.000000  2.000000  2.000000  2.000000  2.000000  2.000000
                       2.000000  2.000000  2.000000  2.000000  2.000000  2.000000
                       2.000000  2.000000  2.000000  2.000000  2.000000  2.000000
                       2.000000  2.000000  0.000000  0.000000  0.000000  0.000000
           ortalg          -2
        paral_kgb           1
           prtden           0
           shiftk      5.00000000E-01  5.00000000E-01  5.00000000E-01
          spgroup          47
           strten      7.1350830912E-03  7.5515796535E-03  6.9579508032E-03
                       0.0000000000E+00  0.0000000000E+00  0.0000000000E+00
           symrel      1  0  0   0  1  0   0  0  1      -1  0  0   0 -1  0   0  0 -1
                      -1  0  0   0  1  0   0  0 -1       1  0  0   0 -1  0   0  0  1
                      -1  0  0   0 -1  0   0  0  1       1  0  0   0  1  0   0  0 -1
                       1  0  0   0 -1  0   0  0 -1      -1  0  0   0  1  0   0  0  1
            tnons      0.0000000  0.0000000  0.0000000     0.0000000  0.0000000 -0.4285714
                       0.0000000  0.0000000 -0.4285714     0.0000000  0.0000000  0.0000000
                       0.0000000  0.0000000  0.0000000     0.0000000  0.0000000 -0.4285714
                       0.0000000  0.0000000 -0.4285714     0.0000000  0.0000000  0.0000000
           tolwfr      1.00000000E-22
            typat      3  3  2  3  3  2  1  3  3  3  2  1  3  3  3  2  1  3  3  3
                       2  1  3  3  3  2  3  3  2
         wfoptalg         114
              wtk        0.25000    0.25000    0.25000    0.25000
           xangst      0.0000000000E+00  0.0000000000E+00 -2.2560597002E+00
                       2.0000000000E+00  2.0000000000E+00 -1.7358821218E+00
                       0.0000000000E+00  2.0000000000E+00 -1.9382320765E+00
                       2.0000000000E+00  0.0000000000E+00  3.4528873183E-01
                       0.0000000000E+00  2.0000000000E+00 -5.5854849961E-02
                       2.0000000000E+00  2.0000000000E+00  1.7294657512E-01
                       0.0000000000E+00  0.0000000000E+00  2.1069676394E+00
                       2.0000000000E+00  2.0000000000E+00  2.1255940918E+00
                       2.0000000000E+00  0.0000000000E+00  4.1033165069E+00
                       0.0000000000E+00  2.0000000000E+00  4.0568887933E+00
                       2.0000000000E+00  2.0000000000E+00  4.0843127188E+00
                       0.0000000000E+00  0.0000000000E+00  6.0394536283E+00
                       2.0000000000E+00  2.0000000000E+00  6.0414127394E+00
                       2.0000000000E+00  0.0000000000E+00  8.0000000001E+00
                       0.0000000000E+00  2.0000000000E+00  8.0000000001E+00
                       2.0000000000E+00  2.0000000000E+00  8.0000000001E+00
                       0.0000000000E+00  0.0000000000E+00  9.9605463718E+00
                       2.0000000000E+00  2.0000000000E+00  9.9585872607E+00
                       2.0000000000E+00  0.0000000000E+00  1.1896683493E+01
                       0.0000000000E+00  2.0000000000E+00  1.1943111207E+01
                       2.0000000000E+00  2.0000000000E+00  1.1915687281E+01
                       0.0000000000E+00  0.0000000000E+00  1.3893032361E+01
                       2.0000000000E+00  2.0000000000E+00  1.3874405908E+01
                       2.0000000000E+00  0.0000000000E+00  1.5654711268E+01
                       0.0000000000E+00  2.0000000000E+00  1.6055854850E+01
                       2.0000000000E+00  2.0000000000E+00  1.5827053425E+01
                       0.0000000000E+00  0.0000000000E+00  1.8256059700E+01
                       2.0000000000E+00  2.0000000000E+00  1.7735882122E+01
                       0.0000000000E+00  2.0000000000E+00  1.7938232077E+01
            xcart      0.0000000000E+00  0.0000000000E+00 -4.2633349728E+00
                       3.7794522658E+00  3.7794522658E+00 -3.2803418091E+00
                       0.0000000000E+00  3.7794522658E+00 -3.6627278066E+00
                       3.7794522658E+00  0.0000000000E+00  6.5250113994E-01
                       0.0000000000E+00  3.7794522658E+00 -1.0555036962E-01
                       3.7794522658E+00  3.7794522658E+00  3.2682166259E-01
                       0.0000000000E+00  0.0000000000E+00  3.9815918094E+00
                       3.7794522658E+00  3.7794522658E+00  4.0167907032E+00
                       3.7794522658E+00  0.0000000000E+00  7.7541444346E+00
                       0.0000000000E+00  3.7794522658E+00  7.6664087709E+00
                       3.7794522658E+00  3.7794522658E+00  7.7182324795E+00
                       0.0000000000E+00  0.0000000000E+00  1.1412913350E+01
                       3.7794522658E+00  3.7794522658E+00  1.1416615533E+01
                       3.7794522658E+00  0.0000000000E+00  1.5117809063E+01
                       0.0000000000E+00  3.7794522658E+00  1.5117809063E+01
                       3.7794522658E+00  3.7794522658E+00  1.5117809063E+01
                       0.0000000000E+00  0.0000000000E+00  1.8822704777E+01
                       3.7794522658E+00  3.7794522658E+00  1.8819002593E+01
                       3.7794522658E+00  0.0000000000E+00  2.2481473692E+01
                       0.0000000000E+00  3.7794522658E+00  2.2569209355E+01
                       3.7794522658E+00  3.7794522658E+00  2.2517385647E+01
                       0.0000000000E+00  0.0000000000E+00  2.6254026317E+01
                       3.7794522658E+00  3.7794522658E+00  2.6218827423E+01
                       3.7794522658E+00  0.0000000000E+00  2.9583116986E+01
                       0.0000000000E+00  3.7794522658E+00  3.0341168496E+01
                       3.7794522658E+00  3.7794522658E+00  2.9908796464E+01
                       0.0000000000E+00  0.0000000000E+00  3.4498953099E+01
                       3.7794522658E+00  3.7794522658E+00  3.3515959936E+01
                       0.0000000000E+00  3.7794522658E+00  3.3898345933E+01
             xred      0.0000000000E+00  0.0000000000E+00 -8.0573560721E-02
                       5.0000000000E-01  5.0000000000E-01 -6.1995790064E-02
                       0.0000000000E+00  5.0000000000E-01 -6.9222574162E-02
                       5.0000000000E-01  0.0000000000E+00  1.2331740423E-02
                       0.0000000000E+00  5.0000000000E-01 -1.9948160700E-03
                       5.0000000000E-01  5.0000000000E-01  6.1766633970E-03
                       0.0000000000E+00  0.0000000000E+00  7.5248844266E-02
                       5.0000000000E-01  5.0000000000E-01  7.5914074707E-02
                       5.0000000000E-01  0.0000000000E+00  1.4654701810E-01
                       0.0000000000E+00  5.0000000000E-01  1.4488888548E-01
                       5.0000000000E-01  5.0000000000E-01  1.4586831138E-01
                       0.0000000000E+00  0.0000000000E+00  2.1569477244E-01
                       5.0000000000E-01  5.0000000000E-01  2.1576474069E-01
                       5.0000000000E-01  0.0000000000E+00  2.8571428572E-01
                       0.0000000000E+00  5.0000000000E-01  2.8571428572E-01
                       5.0000000000E-01  5.0000000000E-01  2.8571428572E-01
                       0.0000000000E+00  0.0000000000E+00  3.5573379899E-01
                       5.0000000000E-01  5.0000000000E-01  3.5566383074E-01
                       5.0000000000E-01  0.0000000000E+00  4.2488155333E-01
                       0.0000000000E+00  5.0000000000E-01  4.2653968596E-01
                       5.0000000000E-01  5.0000000000E-01  4.2556026005E-01
                       0.0000000000E+00  0.0000000000E+00  4.9617972717E-01
                       5.0000000000E-01  5.0000000000E-01  4.9551449673E-01
                       5.0000000000E-01  0.0000000000E+00  5.5909683101E-01
                       0.0000000000E+00  5.0000000000E-01  5.7342338750E-01
                       5.0000000000E-01  5.0000000000E-01  5.6525190804E-01
                       0.0000000000E+00  0.0000000000E+00  6.5200213215E-01
                       5.0000000000E-01  5.0000000000E-01  6.3342436150E-01
                       0.0000000000E+00  5.0000000000E-01  6.4065114560E-01
            znucl       56.00000   22.00000    8.00000

================================================================================


- Timing analysis has been suppressed with timopt=0



================================================================================

 Suggested references for the acknowledgment of ABINIT usage.

 The users of ABINIT have little formal obligations with respect to the ABINIT group
 (those specified in the GNU General Public License, http://www.gnu.org/copyleft/gpl.txt).
 However, it is common practice in the scientific literature,
 to acknowledge the efforts of people that have made the research possible.
 In this spirit, please find below suggested citations of work written by ABINIT developers,
 corresponding to implementations inside of ABINIT that you have used in the present run.
 Note also that it will be of great value to readers of publications presenting these results,
 to read papers enabling them to understand the theoretical formalism and details
 of the ABINIT implementation.
 For information on why they are suggested, see also https://docs.abinit.org/theory/acknowledgments.
-
- [1] Preconditioning of self-consistent-field cycles in density functional theory: the extrapolar method
- P.-M. Anglade, X. Gonze, Phys. Rev. B 78, 045126 (2008).
- Comment: to be cited in case the extrapolar conditioner is used, i.e. non-vanishing iprcel.
- DOI and bibtex: see https://docs.abinit.org/theory/bibliography/#anglade2008
-
- [2] Recent developments in the ABINIT software package.
- Computer Phys. Comm. 205, 106 (2016).
- X.Gonze, F.Jollet, F.Abreu Araujo, D.Adams, B.Amadon, T.Applencourt,
- C.Audouze, J.-M.Beuken, J.Bieder, A.Bokhanchuk, E.Bousquet, F.Bruneval
- D.Caliste, M.Cote, F.Dahm, F.Da Pieve, M.Delaveau, M.Di Gennaro,
- B.Dorado, C.Espejo, G.Geneste, L.Genovese, A.Gerossier, M.Giantomassi,
- Y.Gillet, D.R.Hamann, L.He, G.Jomard, J.Laflamme Janssen, S.Le Roux,
- A.Levitt, A.Lherbier, F.Liu, I.Lukacevic, A.Martin, C.Martins,
- M.J.T.Oliveira, S.Ponce, Y.Pouillon, T.Rangel, G.-M.Rignanese,
- A.H.Romero, B.Rousseau, O.Rubel, A.A.Shukri, M.Stankovski, M.Torrent,
- M.J.Van Setten, B.Van Troeye, M.J.Verstraete, D.Waroquier, J.Wiktor,
- B.Xu, A.Zhou, J.W.Zwanziger.
- Comment: the fourth generic paper describing the ABINIT project.
- Note that a version of this paper, that is not formatted for Computer Phys. Comm. 
- is available at https://www.abinit.org/about/ABINIT16.pdf .
- The licence allows the authors to put it on the Web.
- DOI and bibtex: see https://docs.abinit.org/theory/bibliography/#gonze2016
-
- [3] ABINIT: First-principles approach of materials and nanosystem properties.
- Computer Phys. Comm. 180, 2582-2615 (2009).
- X. Gonze, B. Amadon, P.-M. Anglade, J.-M. Beuken, F. Bottin, P. Boulanger, F. Bruneval,
- D. Caliste, R. Caracas, M. Cote, T. Deutsch, L. Genovese, Ph. Ghosez, M. Giantomassi
- S. Goedecker, D.R. Hamann, P. Hermet, F. Jollet, G. Jomard, S. Leroux, M. Mancini, S. Mazevet,
- M.J.T. Oliveira, G. Onida, Y. Pouillon, T. Rangel, G.-M. Rignanese, D. Sangalli, R. Shaltaf,
- M. Torrent, M.J. Verstraete, G. Zerah, J.W. Zwanziger
- Comment: the third generic paper describing the ABINIT project.
- Note that a version of this paper, that is not formatted for Computer Phys. Comm. 
- is available at https://www.abinit.org/about/ABINIT_CPC_v10.pdf .
- The licence allows the authors to put it on the Web.
- DOI and bibtex: see https://docs.abinit.org/theory/bibliography/#gonze2009
-
- [4] A brief introduction to the ABINIT software package.
- Z. Kristallogr. 220, 558-562 (2005).
- X. Gonze, G.-M. Rignanese, M. Verstraete, J.-M. Beuken, Y. Pouillon, R. Caracas, F. Jollet,
- M. Torrent, G. Zerah, M. Mikami, Ph. Ghosez, M. Veithen, J.-Y. Raty, V. Olevano, F. Bruneval,
- L. Reining, R. Godby, G. Onida, D.R. Hamann, and D.C. Allan.
- Comment: the second generic paper describing the ABINIT project. Note that this paper
- should be cited especially if you are using the GW part of ABINIT, as several authors
- of this part are not in the list of authors of the first or third paper.
- The .pdf of the latter paper is available at https://www.abinit.org/about/zfk_0505-06_558-562.pdf.
- Note that it should not redistributed (Copyright by Oldenburg Wissenshaftverlag,
- the licence allows the authors to put it on the Web).
- DOI and bibtex: see https://docs.abinit.org/theory/bibliography/#gonze2005
-
- And optionally:
-
- [5] First-principles computation of material properties: the ABINIT software project. 
- X. Gonze, J.-M. Beuken, R. Caracas, F. Detraux, M. Fuchs, G.-M. Rignanese, L. Sindic,
- M. Verstraete, G. Zerah, F. Jollet, M. Torrent, A. Roy, M. Mikami, Ph. Ghosez, J.-Y. Raty, D.C. Allan.
- Computational Materials Science 25, 478-492 (2002). http://dx.doi.org/10.1016/S0927-0256(02)00325-7
- Comment: the original paper describing the ABINIT project.
- DOI and bibtex : see https://docs.abinit.org/theory/bibliography/#gonze2002
-
- Proc.   0 individual time (sec): cpu=        232.2  wall=        232.9

================================================================================

 Calculation completed.
.Delivered   5 WARNINGs and   0 COMMENTs to log file.
+Overall time at end (sec) : cpu=       5573.2  wall=       5589.5
