
.Version 9.2.2 of ABINIT 
.(MPI version, prepared for a x86_64_linux_gnu10.2 computer) 

.Copyright (C) 1998-2020 ABINIT group . 
 ABINIT comes with ABSOLUTELY NO WARRANTY.
 It is free software, and you are welcome to redistribute it
 under certain conditions (GNU General Public License,
 see ~abinit/COPYING or http://www.gnu.org/copyleft/gpl.txt).

 ABINIT is a project of the Universite Catholique de Louvain,
 Corning Inc. and other collaborators, see ~abinit/doc/developers/contributors.txt .
 Please read https://docs.abinit.org/theory/acknowledgments for suggested
 acknowledgments of the ABINIT effort.
 For more information, see https://www.abinit.org .

.Starting date : Sat 17 Oct 2020.
- ( at 12h26 )
  
- input  file    -> /home/buildbot/ABINIT/scope_gnu_10.2_paral/trunk__gonze-9.2/tests/TestBot_MPI24/tutoparal_tdfpt_03_MPI24-tdfpt_04_MPI24/tdfpt_04.in
- output file    -> tdfpt_04_MPI24.out
- root for input  files -> tdfpt_04_MPI24i
- root for output files -> tdfpt_04_MPI24o


 Symmetries : space group Pm m m (# 47); Bravais oP (primitive ortho.)
================================================================================
 Values of the parameters that define the memory need of the present run (RF).
     intxc =       0      iscf =       7    lmnmax =       4     lnmax =       4
     mgfft =     192  mpssoang =       3    mqgrid =    9226     natom =      29
  nloc_mem =       1    nspden =       1   nspinor =       1    nsppol =       1
      nsym =       8    n1xccc =    2501    ntypat =       3    occopt =       1
   xclevel =       1
-    mband =         120        mffmem =           1         mkmem =           1
-   mkqmem =           1        mk1mem =           1           mpw =        8428
      nfft =      172800          nkpt =          16
================================================================================
P This job should need less than                     103.037 Mbytes of memory.
  Rough estimation (10% accuracy) of disk space for files :
_ WF disk file :    246.916 Mbytes ; DEN or POT disk file :      1.320 Mbytes.
================================================================================

--------------------------------------------------------------------------------
------------- Echo of variables that govern the present computation ------------
--------------------------------------------------------------------------------
-
- outvars: echo of selected default values                                      
-   iomode0 =  3 , fftalg0 =312 , wfoptalg0 =  0
-
- outvars: echo of global parameters not present in the input file              
-  max_nthreads =    0
-
 -outvars: echo values of preprocessed input variables --------
            acell      7.5589045315E+00  7.5589045315E+00  5.2912331721E+01 Bohr
              amu      1.37327000E+02  4.78800000E+01  1.59994000E+01
             ecut      1.50000000E+01 Hartree
-          fftalg         312
           irdwfk           1
              ixc           3
              kpt      1.25000000E-01  1.25000000E-01  5.00000000E-01
                       3.75000000E-01  1.25000000E-01  5.00000000E-01
                      -3.75000000E-01  1.25000000E-01  5.00000000E-01
                      -1.25000000E-01  1.25000000E-01  5.00000000E-01
                       1.25000000E-01  3.75000000E-01  5.00000000E-01
                       3.75000000E-01  3.75000000E-01  5.00000000E-01
                      -3.75000000E-01  3.75000000E-01  5.00000000E-01
                      -1.25000000E-01  3.75000000E-01  5.00000000E-01
                       1.25000000E-01 -3.75000000E-01  5.00000000E-01
                       3.75000000E-01 -3.75000000E-01  5.00000000E-01
                      -3.75000000E-01 -3.75000000E-01  5.00000000E-01
                      -1.25000000E-01 -3.75000000E-01  5.00000000E-01
                       1.25000000E-01 -1.25000000E-01  5.00000000E-01
                       3.75000000E-01 -1.25000000E-01  5.00000000E-01
                      -3.75000000E-01 -1.25000000E-01  5.00000000E-01
                      -1.25000000E-01 -1.25000000E-01  5.00000000E-01
           kptopt           3
         kptrlatt        4    0    0      0    4    0      0    0    1
          kptrlen      3.02356181E+01
P           mkmem           1
P          mkqmem           1
P          mk1mem           1
            natom          29
            nband         120
            ngfft          30      30     192
             nkpt          16
             nqpt           1
             nsym           8
           ntypat           3
              occ      2.000000  2.000000  2.000000  2.000000  2.000000  2.000000
                       2.000000  2.000000  2.000000  2.000000  2.000000  2.000000
                       2.000000  2.000000  2.000000  2.000000  2.000000  2.000000
                       2.000000  2.000000  2.000000  2.000000  2.000000  2.000000
                       2.000000  2.000000  2.000000  2.000000  2.000000  2.000000
                       2.000000  2.000000  2.000000  2.000000  2.000000  2.000000
                       2.000000  2.000000  2.000000  2.000000  2.000000  2.000000
                       2.000000  2.000000  2.000000  2.000000  2.000000  2.000000
                       2.000000  2.000000  2.000000  2.000000  2.000000  2.000000
                       2.000000  2.000000  2.000000  2.000000  2.000000  2.000000
                       2.000000  2.000000  2.000000  2.000000  2.000000  2.000000
                       2.000000  2.000000  2.000000  2.000000  2.000000  2.000000
                       2.000000  2.000000  2.000000  2.000000  2.000000  2.000000
                       2.000000  2.000000  2.000000  2.000000  2.000000  2.000000
                       2.000000  2.000000  2.000000  2.000000  2.000000  2.000000
                       2.000000  2.000000  2.000000  2.000000  2.000000  2.000000
                       2.000000  2.000000  2.000000  2.000000  2.000000  2.000000
                       2.000000  2.000000  2.000000  2.000000  2.000000  2.000000
                       2.000000  2.000000  2.000000  2.000000  2.000000  2.000000
                       2.000000  2.000000  0.000000  0.000000  0.000000  0.000000
        optdriver           1
           prtden           0
              qpt      0.00000000E+00  2.50000000E-01  0.00000000E+00
            rfdir           0       0       1
           rfphon           1
           shiftk      5.00000000E-01  5.00000000E-01  5.00000000E-01
          spgroup          47
           symrel      1  0  0   0  1  0   0  0  1      -1  0  0   0 -1  0   0  0 -1
                      -1  0  0   0  1  0   0  0 -1       1  0  0   0 -1  0   0  0  1
                      -1  0  0   0 -1  0   0  0  1       1  0  0   0  1  0   0  0 -1
                       1  0  0   0 -1  0   0  0 -1      -1  0  0   0  1  0   0  0  1
           timopt          -2
            tnons      0.0000000  0.0000000  0.0000000     0.0000000  0.0000000 -0.4285714
                       0.0000000  0.0000000 -0.4285714     0.0000000  0.0000000  0.0000000
                       0.0000000  0.0000000  0.0000000     0.0000000  0.0000000 -0.4285714
                       0.0000000  0.0000000 -0.4285714     0.0000000  0.0000000  0.0000000
           tolrde      0.00000000E+00
           tolwfr      1.00000000E-22
            typat      3  3  2  3  3  2  1  3  3  3  2  1  3  3  3  2  1  3  3  3
                       2  1  3  3  3  2  3  3  2
              wtk        0.06250    0.06250    0.06250    0.06250    0.06250    0.06250
                         0.06250    0.06250    0.06250    0.06250    0.06250    0.06250
                         0.06250    0.06250    0.06250    0.06250
           xangst      0.0000000000E+00  0.0000000000E+00 -2.2560597002E+00
                       2.0000000000E+00  2.0000000000E+00 -1.7358821218E+00
                       0.0000000000E+00  2.0000000000E+00 -1.9382320765E+00
                       2.0000000000E+00  0.0000000000E+00  3.4528873183E-01
                       0.0000000000E+00  2.0000000000E+00 -5.5854849961E-02
                       2.0000000000E+00  2.0000000000E+00  1.7294657512E-01
                       0.0000000000E+00  0.0000000000E+00  2.1069676394E+00
                       2.0000000000E+00  2.0000000000E+00  2.1255940918E+00
                       2.0000000000E+00  0.0000000000E+00  4.1033165069E+00
                       0.0000000000E+00  2.0000000000E+00  4.0568887933E+00
                       2.0000000000E+00  2.0000000000E+00  4.0843127188E+00
                       0.0000000000E+00  0.0000000000E+00  6.0394536283E+00
                       2.0000000000E+00  2.0000000000E+00  6.0414127394E+00
                       2.0000000000E+00  0.0000000000E+00  8.0000000001E+00
                       0.0000000000E+00  2.0000000000E+00  8.0000000001E+00
                       2.0000000000E+00  2.0000000000E+00  8.0000000001E+00
                       0.0000000000E+00  0.0000000000E+00  9.9605463718E+00
                       2.0000000000E+00  2.0000000000E+00  9.9585872607E+00
                       2.0000000000E+00  0.0000000000E+00  1.1896683493E+01
                       0.0000000000E+00  2.0000000000E+00  1.1943111207E+01
                       2.0000000000E+00  2.0000000000E+00  1.1915687281E+01
                       0.0000000000E+00  0.0000000000E+00  1.3893032361E+01
                       2.0000000000E+00  2.0000000000E+00  1.3874405908E+01
                       2.0000000000E+00  0.0000000000E+00  1.5654711268E+01
                       0.0000000000E+00  2.0000000000E+00  1.6055854850E+01
                       2.0000000000E+00  2.0000000000E+00  1.5827053425E+01
                       0.0000000000E+00  0.0000000000E+00  1.8256059700E+01
                       2.0000000000E+00  2.0000000000E+00  1.7735882122E+01
                       0.0000000000E+00  2.0000000000E+00  1.7938232077E+01
            xcart      0.0000000000E+00  0.0000000000E+00 -4.2633349728E+00
                       3.7794522658E+00  3.7794522658E+00 -3.2803418091E+00
                       0.0000000000E+00  3.7794522658E+00 -3.6627278066E+00
                       3.7794522658E+00  0.0000000000E+00  6.5250113994E-01
                       0.0000000000E+00  3.7794522658E+00 -1.0555036962E-01
                       3.7794522658E+00  3.7794522658E+00  3.2682166259E-01
                       0.0000000000E+00  0.0000000000E+00  3.9815918094E+00
                       3.7794522658E+00  3.7794522658E+00  4.0167907032E+00
                       3.7794522658E+00  0.0000000000E+00  7.7541444346E+00
                       0.0000000000E+00  3.7794522658E+00  7.6664087709E+00
                       3.7794522658E+00  3.7794522658E+00  7.7182324795E+00
                       0.0000000000E+00  0.0000000000E+00  1.1412913350E+01
                       3.7794522658E+00  3.7794522658E+00  1.1416615533E+01
                       3.7794522658E+00  0.0000000000E+00  1.5117809063E+01
                       0.0000000000E+00  3.7794522658E+00  1.5117809063E+01
                       3.7794522658E+00  3.7794522658E+00  1.5117809063E+01
                       0.0000000000E+00  0.0000000000E+00  1.8822704777E+01
                       3.7794522658E+00  3.7794522658E+00  1.8819002593E+01
                       3.7794522658E+00  0.0000000000E+00  2.2481473692E+01
                       0.0000000000E+00  3.7794522658E+00  2.2569209355E+01
                       3.7794522658E+00  3.7794522658E+00  2.2517385647E+01
                       0.0000000000E+00  0.0000000000E+00  2.6254026317E+01
                       3.7794522658E+00  3.7794522658E+00  2.6218827423E+01
                       3.7794522658E+00  0.0000000000E+00  2.9583116986E+01
                       0.0000000000E+00  3.7794522658E+00  3.0341168496E+01
                       3.7794522658E+00  3.7794522658E+00  2.9908796464E+01
                       0.0000000000E+00  0.0000000000E+00  3.4498953099E+01
                       3.7794522658E+00  3.7794522658E+00  3.3515959936E+01
                       0.0000000000E+00  3.7794522658E+00  3.3898345933E+01
             xred      0.0000000000E+00  0.0000000000E+00 -8.0573560721E-02
                       5.0000000000E-01  5.0000000000E-01 -6.1995790064E-02
                       0.0000000000E+00  5.0000000000E-01 -6.9222574162E-02
                       5.0000000000E-01  0.0000000000E+00  1.2331740423E-02
                       0.0000000000E+00  5.0000000000E-01 -1.9948160700E-03
                       5.0000000000E-01  5.0000000000E-01  6.1766633970E-03
                       0.0000000000E+00  0.0000000000E+00  7.5248844266E-02
                       5.0000000000E-01  5.0000000000E-01  7.5914074707E-02
                       5.0000000000E-01  0.0000000000E+00  1.4654701810E-01
                       0.0000000000E+00  5.0000000000E-01  1.4488888548E-01
                       5.0000000000E-01  5.0000000000E-01  1.4586831138E-01
                       0.0000000000E+00  0.0000000000E+00  2.1569477244E-01
                       5.0000000000E-01  5.0000000000E-01  2.1576474069E-01
                       5.0000000000E-01  0.0000000000E+00  2.8571428572E-01
                       0.0000000000E+00  5.0000000000E-01  2.8571428572E-01
                       5.0000000000E-01  5.0000000000E-01  2.8571428572E-01
                       0.0000000000E+00  0.0000000000E+00  3.5573379899E-01
                       5.0000000000E-01  5.0000000000E-01  3.5566383074E-01
                       5.0000000000E-01  0.0000000000E+00  4.2488155333E-01
                       0.0000000000E+00  5.0000000000E-01  4.2653968596E-01
                       5.0000000000E-01  5.0000000000E-01  4.2556026005E-01
                       0.0000000000E+00  0.0000000000E+00  4.9617972717E-01
                       5.0000000000E-01  5.0000000000E-01  4.9551449673E-01
                       5.0000000000E-01  0.0000000000E+00  5.5909683101E-01
                       0.0000000000E+00  5.0000000000E-01  5.7342338750E-01
                       5.0000000000E-01  5.0000000000E-01  5.6525190804E-01
                       0.0000000000E+00  0.0000000000E+00  6.5200213215E-01
                       5.0000000000E-01  5.0000000000E-01  6.3342436150E-01
                       0.0000000000E+00  5.0000000000E-01  6.4065114560E-01
            znucl       56.00000   22.00000    8.00000

================================================================================

 chkinp: Checking input parameters for consistency.

================================================================================
== DATASET  1 ==================================================================
-   mpi_nproc: 24, omp_nthreads: -1 (-1 if OMP is not activated)


--- !DatasetInfo
iteration_state: {dtset: 1, }
dimensions: {natom: 29, nkpt: 16, mband: 120, nsppol: 1, nspinor: 1, nspden: 1, mpw: 8428, }
cutoff_energies: {ecut:  15.0, pawecutdg:  -1.0, }
electrons: {nelect:   2.32000000E+02, charge:   0.00000000E+00, occopt:   1.00000000E+00, tsmear:   1.00000000E-02, }
meta: {optdriver: 1, rfphon: 1, }
...

 Exchange-correlation functional for the present dataset will be:
  LDA: old Teter (4/91) fit to Ceperley-Alder data - ixc=3

 Real(R)+Recip(G) space primitive vectors, cartesian coordinates (Bohr,Bohr^-1):
 R(1)=  7.5589045  0.0000000  0.0000000  G(1)=  0.1322943  0.0000000  0.0000000
 R(2)=  0.0000000  7.5589045  0.0000000  G(2)=  0.0000000  0.1322943  0.0000000
 R(3)=  0.0000000  0.0000000 52.9123317  G(3)=  0.0000000  0.0000000  0.0188992
 Unit cell volume ucvol=  3.0232539E+03 bohr^3
 Angles (23,13,12)=  9.00000000E+01  9.00000000E+01  9.00000000E+01 degrees
 setup1 : take into account q-point for computing boxcut.

 getcut: wavevector=  0.0000  0.2500  0.0000  ngfft=  30  30 192
         ecut(hartree)=     15.000   => boxcut(ratio)=   2.08164

--- Pseudopotential description ------------------------------------------------
- pspini: atom type   1  psp file is /home/buildbot/ABINIT/scope_gnu_10.2_paral/trunk__gonze-9.2/tests/Psps_for_tests/56ba.psp_mod
- pspatm: opening atomic psp file    /home/buildbot/ABINIT/scope_gnu_10.2_paral/trunk__gonze-9.2/tests/Psps_for_tests/56ba.psp_mod
- Barium.ion 5s2.5p6.6s0.5d0 rcs=rcp=rcd=1.7 ecut=22/28
- 56.00000  10.00000    940000                znucl, zion, pspdat
    4    3    2    2      2001   0.00000      pspcod,pspxc,lmax,lloc,mmax,r2well
    0   0.000   0.000    2   1.6965489        l,e99.0,e99.9,nproj,rcpsp
   0.00000000   0.00000000   0.00000000   0.00000000     rms, ekb1, ekb2, epsatm
    1   0.000   0.000    2   1.6965489        l,e99.0,e99.9,nproj,rcpsp
   0.00000000   0.00000000   0.00000000   0.00000000     rms, ekb1, ekb2, epsatm
    2   0.000   0.000    0   1.6965489        l,e99.0,e99.9,nproj,rcpsp
   0.00000000   0.00000000   0.00000000   0.00000000     rms, ekb1, ekb2, epsatm
    0.00000000000000    0.00000000000000    0.00000000000000   rchrg,fchrg,qchrg
  pspatm : epsatm=   43.25917021
         --- l  ekb(1:nproj) -->
             0   -9.646692   27.266828
             1   -6.938476   21.148499
 pspatm: atomic psp has been read  and splines computed

- pspini: atom type   2  psp file is /home/buildbot/ABINIT/scope_gnu_10.2_paral/trunk__gonze-9.2/tests/Psps_for_tests/22ti.psp_mod
- pspatm: opening atomic psp file    /home/buildbot/ABINIT/scope_gnu_10.2_paral/trunk__gonze-9.2/tests/Psps_for_tests/22ti.psp_mod
- Titane.ion 3s2.3p6.4s0.3d2 rcd=1.65, rcs=rc0=1.25, ecut 32/54
- 22.00000  12.00000    940000                znucl, zion, pspdat
    4    3    2    2      2001   0.00000      pspcod,pspxc,lmax,lloc,mmax,r2well
    0   0.000   0.000    2   1.2533577        l,e99.0,e99.9,nproj,rcpsp
   0.00000000   0.00000000   0.00000000   0.00000000     rms, ekb1, ekb2, epsatm
    1   0.000   0.000    2   1.2533577        l,e99.0,e99.9,nproj,rcpsp
   0.00000000   0.00000000   0.00000000   0.00000000     rms, ekb1, ekb2, epsatm
    2   0.000   0.000    0   1.6491622        l,e99.0,e99.9,nproj,rcpsp
   0.00000000   0.00000000   0.00000000   0.00000000     rms, ekb1, ekb2, epsatm
    0.00000000000000    0.00000000000000    0.00000000000000   rchrg,fchrg,qchrg
  pspatm : epsatm=    4.67708954
         --- l  ekb(1:nproj) -->
             0    9.517316   -2.344682
             1    5.011406   -0.741179
 pspatm: atomic psp has been read  and splines computed

- pspini: atom type   3  psp file is /home/buildbot/ABINIT/scope_gnu_10.2_paral/trunk__gonze-9.2/tests/Psps_for_tests/8o.psp_mod
- pspatm: opening atomic psp file    /home/buildbot/ABINIT/scope_gnu_10.2_paral/trunk__gonze-9.2/tests/Psps_for_tests/8o.psp_mod
- 1.65bohr 35 hartree exncc psp for oxygen with core 19 june 1992
-  8.00000   6.00000    920619                znucl, zion, pspdat
    4    3    1    1      2001   0.00000      pspcod,pspxc,lmax,lloc,mmax,r2well
    0   0.000   0.000    2   1.6491622        l,e99.0,e99.9,nproj,rcpsp
   0.00000000   0.00000000   0.00000000   0.00000000     rms, ekb1, ekb2, epsatm
    1   0.000   0.000    0   1.6491622        l,e99.0,e99.9,nproj,rcpsp
   0.00000000   0.00000000   0.00000000   0.00000000     rms, ekb1, ekb2, epsatm
    1.00000000000000    0.95000909444395    0.44408665956870   rchrg,fchrg,qchrg
  pspatm : epsatm=    1.15255884
         --- l  ekb(1:nproj) -->
             0    7.721978   -1.904542
 pspatm: atomic psp has been read  and splines computed

   5.25531891E+04                                ecore*ucvol(ha*bohr**3)
--------------------------------------------------------------------------------

-inwffil : will read wavefunctions from disk file tdfpt_04_MPI24i_WFK.nc

 ==>  initialize data related to q vector <== 

 The list of irreducible perturbations for this q vector is:
    1)    idir= 3    ipert=   1

================================================================================

--------------------------------------------------------------------------------
 Perturbation wavevector (in red.coord.)   0.000000  0.250000  0.000000
 Perturbation : displacement of atom   1   along direction   3
 Found     2 symmetries that leave the perturbation invariant.
 symkpt : the number of k-points, thanks to the symmetries,
 is reduced to     8 .

--------------------------------------------------------------------------------

-inwffil : will read wavefunctions from disk file tdfpt_04_MPI24i_WFK.nc
--------------------------------------------------------------------------------

-inwffil : will read wavefunctions from disk file tdfpt_04_MPI24i_WFK.nc
 Initialisation of the first-order wave-functions :
  ireadwf=   0

--- !BeginCycle
iteration_state: {dtset: 1, }
solver: {iscf: 7, nstep: 30, nline: 4, wfoptalg: 0, }
tolerances: {tolwfr: 1.00E-22, }
...

     iter   2DEtotal(Ha)        deltaE(Ha) residm    vres2
-ETOT  1   32452.426582164     -7.833E+04 4.138E+02 1.359E+08
 ETOT  2   3336.4608778846     -2.912E+04 9.378E+01 3.210E+07
 ETOT  3   1432.1301800426     -1.904E+03 1.032E+02 1.735E+07
 ETOT  4   501.36495277019     -9.308E+02 3.599E+01 5.116E+06
 ETOT  5   220.34213153891     -2.810E+02 3.392E+01 3.491E+06
 ETOT  6   82.253366443141     -1.381E+02 1.811E+01 1.691E+06
 ETOT  7   64.815121744731     -1.744E+01 2.561E+01 1.212E+06
 ETOT  8   48.493455496749     -1.632E+01 4.998E+00 8.870E+05
 ETOT  9   34.569369226113     -1.392E+01 4.284E+00 5.222E+05
 ETOT 10   23.926729667729     -1.064E+01 5.004E+00 1.999E+05
 ETOT 11   21.132957943280     -2.794E+00 6.252E+00 9.891E+04
 ETOT 12   17.192718278298     -3.940E+00 6.903E+00 2.859E+04
 ETOT 13   16.272853760719     -9.199E-01 1.125E+01 7.372E+03
 ETOT 14   15.955076902364     -3.178E-01 6.997E+00 3.796E+03
 ETOT 15   15.771286632212     -1.838E-01 1.155E+01 1.222E+03
 ETOT 16   15.710932752002     -6.035E-02 7.368E+00 3.031E+02
 ETOT 17   15.697252300977     -1.368E-02 1.280E+01 1.267E+02
 ETOT 18   15.689213709048     -8.039E-03 8.374E+00 3.430E+01
 ETOT 19   15.687426288555     -1.787E-03 1.533E+01 9.663E+00
 ETOT 20   15.686671095960     -7.552E-04 1.040E+01 6.691E+00
 ETOT 21   15.686434994496     -2.361E-04 2.018E+01 3.437E+00
 ETOT 22   15.686355362444     -7.963E-05 6.452E-01 2.241E+00
 ETOT 23   15.686281925010     -7.344E-05 1.412E+01 9.443E-01
 ETOT 24   15.686261740572     -2.018E-05 9.976E+00 4.041E-01
 ETOT 25   15.686244087630     -1.765E-05 1.675E+01 1.093E-01
 ETOT 26   15.686240331504     -3.756E-06 6.797E+00 4.259E-02
 ETOT 27   15.686238113210     -2.218E-06 1.389E+01 2.603E-02
 ETOT 28   15.686237698451     -4.148E-07 6.715E+00 1.727E-02
 ETOT 29   15.686237197327     -5.011E-07 1.434E+01 8.254E-03
 ETOT 30   15.686236959301     -2.380E-07 7.475E+00 3.039E-03

 scprqt:  WARNING -
  nstep=   30 was not enough SCF cycles to converge;
  maximum residual=  7.475E+00 exceeds tolwfr=  1.000E-22

================================================================================

 ----iterations are completed or convergence reached----

 Mean square residual over all n,k,spin=   98.675E-04; max=  74.746E-01

 Thirteen components of 2nd-order total energy (hartree) are
 1,2,3: 0th-order hamiltonian combined with 1st-order wavefunctions
     kin0=   1.31237291E+05 eigvalue=  -3.67498404E+03  local=  -6.70807759E+04
 4,5,6: 1st-order hamiltonian combined with 1st and 0th-order wfs
 loc psp =  -1.17942389E+05  Hartree=   2.51266441E+04     xc=  -5.56952315E+03
 note that "loc psp" includes a xc core correction that could be resolved
 7,8,9: eventually, occupation + non-local contributions
    edocc=   1.42392391E+02     enl0=   3.05816165E+04   enl1=  -1.03582943E+05
 1-9 gives the relaxation energy (to be shifted if some occ is /=2.0)
   erelax=  -1.10762672E+05
 10,11,12 Non-relaxation  contributions : frozen-wavefunctions and Ewald
 fr.local=   5.85215642E+04 fr.nonlo=   5.28707143E+04  Ewald=  -6.22707873E+02
 13,14 Frozen wf xc core corrections (1) and (2)
 frxc 1  =  -6.60781065E+02  frxc 2 =   6.69568841E+02
 Resulting in :
 2DEtotal=    0.1568623696E+02 Ha. Also 2DEtotal=    0.426844215218E+03 eV
    (2DErelax=   -1.1076267215E+05 Ha. 2DEnonrelax=    1.1077835839E+05 Ha)
    (  non-var. 2DEtotal :    1.5692024297E+01 Ha)

================================================================================

 ---- first-order wavefunction calculations are completed ----


 ==> Compute Derivative Database <==
  
  2nd-order matrix (non-cartesian coordinates, masses not included,
   asr not included )
     j1       j2             matrix element
  dir pert dir pert     real part     imaginary part
  
   1    1   2    1         0.0000000000         0.0000000000
   1    1   3    1         0.0000000000        -0.0000000000
   1    1   2    2        -0.0000000000        -0.0000000000
   1    1   3    2        -0.0000000000         0.0000000000
   1    1   2    3         0.0000000000         0.0000000000
   1    1   3    3        -0.0000000000         0.0000000000
   1    1   2    4        -0.0000000000        -0.0000000000
   1    1   3    4         0.0000000000        -0.0000000000
   1    1   2    5         0.0000000000         0.0000000000
   1    1   3    5         0.0000000000        -0.0000000000
   1    1   2    6        -0.0000000000        -0.0000000000
   1    1   3    6        -0.0000000000         0.0000000000
   1    1   2    7        -0.0000000000        -0.0000000000
   1    1   3    7         0.0000000000        -0.0000000000
   1    1   2    8         0.0000000000         0.0000000000
   1    1   3    8         0.0000000000        -0.0000000000
   1    1   2    9        -0.0000000000         0.0000000000
   1    1   3    9         0.0000000000         0.0000000000
   1    1   2   10         0.0000000000         0.0000000000
   1    1   3   10         0.0000000000        -0.0000000000
   1    1   2   11        -0.0000000000        -0.0000000000
   1    1   3   11         0.0000000000        -0.0000000000
   1    1   2   12         0.0000000000         0.0000000000
   1    1   3   12        -0.0000000000        -0.0000000000
   1    1   2   13        -0.0000000000        -0.0000000000
   1    1   3   13         0.0000000000        -0.0000000000
   1    1   2   14        -0.0000000000        -0.0000000000
   1    1   3   14        -0.0000000000         0.0000000000
   1    1   2   15         0.0000000000         0.0000000000
   1    1   3   15         0.0000000000        -0.0000000000
   1    1   2   16        -0.0000000000        -0.0000000000
   1    1   3   16        -0.0000000000         0.0000000000
   1    1   2   17         0.0000000000        -0.0000000000
   1    1   3   17         0.0000000000         0.0000000000
   1    1   2   18        -0.0000000000         0.0000000000
   1    1   3   18        -0.0000000000         0.0000000000
   1    1   2   19         0.0000000000         0.0000000000
   1    1   3   19         0.0000000000         0.0000000000
   1    1   2   20        -0.0000000000         0.0000000000
   1    1   3   20        -0.0000000000         0.0000000000
   1    1   2   21         0.0000000000         0.0000000000
   1    1   3   21        -0.0000000000        -0.0000000000
   1    1   2   22        -0.0000000000         0.0000000000
   1    1   3   22         0.0000000000         0.0000000000
   1    1   2   23         0.0000000000         0.0000000000
   1    1   3   23         0.0000000000        -0.0000000000
   1    1   2   24        -0.0000000000         0.0000000000
   1    1   3   24         0.0000000000         0.0000000000
   1    1   2   25        -0.0000000000         0.0000000000
   1    1   3   25         0.0000000000         0.0000000000
   1    1   2   26        -0.0000000000         0.0000000000
   1    1   3   26        -0.0000000000         0.0000000000
   1    1   2   27         0.0000000000        -0.0000000000
   1    1   3   27        -0.0000000000        -0.0000000000
   1    1   2   28         0.0000000000        -0.0000000000
   1    1   3   28         0.0000000000         0.0000000000
   1    1   2   29         0.0000000000         0.0000000000
   1    1   3   29        -0.0000000000         0.0000000000
  
   2    1   1    1         0.0000000000         0.0000000000
   2    1   3    1        -0.0000319794         3.1160780989
   2    1   1    2        -0.0000000000        -0.0000000000
   2    1   1    3         0.0000000000         0.0000000000
   2    1   1    4        -0.0000000000        -0.0000000000
   2    1   1    5         0.0000000000         0.0000000000
   2    1   1    6        -0.0000000000        -0.0000000000
   2    1   1    7        -0.0000000000        -0.0000000000
   2    1   1    8         0.0000000000         0.0000000000
   2    1   1    9        -0.0000000000         0.0000000000
   2    1   1   10         0.0000000000         0.0000000000
   2    1   1   11        -0.0000000000        -0.0000000000
   2    1   1   12         0.0000000000         0.0000000000
   2    1   1   13        -0.0000000000        -0.0000000000
   2    1   1   14        -0.0000000000        -0.0000000000
   2    1   1   15         0.0000000000         0.0000000000
   2    1   1   16        -0.0000000000        -0.0000000000
   2    1   1   17         0.0000000000        -0.0000000000
   2    1   1   18        -0.0000000000         0.0000000000
   2    1   1   19         0.0000000000         0.0000000000
   2    1   1   20        -0.0000000000         0.0000000000
   2    1   1   21         0.0000000000         0.0000000000
   2    1   1   22        -0.0000000000         0.0000000000
   2    1   1   23         0.0000000000         0.0000000000
   2    1   1   24        -0.0000000000         0.0000000000
   2    1   1   25        -0.0000000000         0.0000000000
   2    1   1   26        -0.0000000000         0.0000000000
   2    1   1   27         0.0000000000        -0.0000000000
   2    1   3   27        -0.0000046604         0.5360994606
   2    1   1   28         0.0000000000        -0.0000000000
   2    1   1   29         0.0000000000         0.0000000000
  
   3    1   1    1         0.0000000000         0.0000000000
   3    1   2    1        -0.0000319794        -3.1160780989
   3    1   3    1        15.6920242972         0.0000000000
   3    1   1    2        -0.0000000000         0.0000000000
   3    1   2    2        -0.5222517883        -0.5223344977
   3    1   3    2        14.1959165734       -14.1947737928
   3    1   1    3         0.0000000000        -0.0000000000
   3    1   2    3       -10.3196054023       -10.3195088408
   3    1   3    3       -93.1751813338        93.1798818671
   3    1   1    4         0.0000000000         0.0000000000
   3    1   2    4        -0.0000047087        -1.7455023206
   3    1   3    4       -21.1152593947        -0.0001520873
   3    1   1    5        -0.0000000000         0.0000000000
   3    1   2    5        -1.0271073871        -1.0271190137
   3    1   3    5         2.7121431122        -2.7115750856
   3    1   1    6         0.0000000000         0.0000000000
   3    1   2    6         2.6421272307         2.6421760442
   3    1   3    6         5.6393143765        -5.6407274281
   3    1   1    7         0.0000000000        -0.0000000000
   3    1   2    7         0.0000501201         0.3210957163
   3    1   3    7         5.3860483650         0.0000412048
   3    1   1    8        -0.0000000000        -0.0000000000
   3    1   2    8        -0.2617885394        -0.2617601628
   3    1   3    8        -1.3513593642         1.3516751786
   3    1   1    9        -0.0000000000        -0.0000000000
   3    1   2    9        -0.0000333859        -0.2425517272
   3    1   3    9        -1.4089530155        -0.0000244648
   3    1   1   10        -0.0000000000         0.0000000000
   3    1   2   10        -0.1331164307        -0.1331240953
   3    1   3   10        -0.5754364560         0.5753812267
   3    1   1   11         0.0000000000         0.0000000000
   3    1   2   11         0.2239034906         0.2238625473
   3    1   3   11         2.5414262575        -2.5417903720
   3    1   1   12        -0.0000000000         0.0000000000
   3    1   2   12         0.0000080066         0.0919730076
   3    1   3   12         0.6161857398         0.0000243889
   3    1   1   13        -0.0000000000         0.0000000000
   3    1   2   13        -0.0386658353        -0.0386447482
   3    1   3   13        -0.6411717149         0.6412556555
   3    1   1   14         0.0000000000         0.0000000000
   3    1   2   14        -0.0000038253        -0.0535796578
   3    1   3   14        -0.2512079589         0.0000733634
   3    1   1   15         0.0000000000         0.0000000000
   3    1   2   15        -0.0167642952        -0.0167749880
   3    1   3   15        -0.1125922408         0.1124129879
   3    1   1   16         0.0000000000        -0.0000000000
   3    1   2   16         0.0509140971         0.0509696447
   3    1   3   16         0.3772677791        -0.3774416493
   3    1   1   17        -0.0000000000        -0.0000000000
   3    1   2   17         0.0000012351        -0.0022135931
   3    1   3   17         0.1393695498         0.0000015120
   3    1   1   18        -0.0000000000         0.0000000000
   3    1   2   18        -0.0007503748        -0.0007496124
   3    1   3   18        -0.2394637159         0.2394900440
   3    1   1   19         0.0000000000        -0.0000000000
   3    1   2   19        -0.0000039056         0.0216764512
   3    1   3   19        -0.1318757940         0.0000230479
   3    1   1   20        -0.0000000000        -0.0000000000
   3    1   2   20         0.0075557204         0.0075623332
   3    1   3   20        -0.1727995105         0.1727207546
   3    1   1   21        -0.0000000000         0.0000000000
   3    1   2   21        -0.0378901221        -0.0378984311
   3    1   3   21         0.2532389039        -0.2531133691
   3    1   1   22         0.0000000000         0.0000000000
   3    1   2   22        -0.0000044882        -0.0470325892
   3    1   3   22         0.3717617943        -0.0000233311
   3    1   1   23         0.0000000000         0.0000000000
   3    1   2   23         0.0225372211         0.0225398272
   3    1   3   23        -0.5153409939         0.5153445468
   3    1   1   24         0.0000000000        -0.0000000000
   3    1   2   24        -0.0000060454         0.1762333101
   3    1   3   24        -0.2965478729         0.0000093656
   3    1   1   25        -0.0000000000        -0.0000000000
   3    1   2   25         0.0443035156         0.0443106506
   3    1   3   25        -0.6053528896         0.6052823547
   3    1   1   26         0.0000000000         0.0000000000
   3    1   2   26        -0.1551346403        -0.1551221813
   3    1   3   26         1.1187069986        -1.1188136107
   3    1   1   27        -0.0000000000        -0.0000000000
   3    1   2   27        -0.0000046604         0.5360994606
   3    1   3   27        -2.3436304212         0.0000177557
   3    1   1   28         0.0000000000        -0.0000000000
   3    1   2   28         0.0723290442         0.0723257458
   3    1   3   28        -0.9114979949         0.9113967258
   3    1   1   29        -0.0000000000        -0.0000000000
   3    1   2   29        -0.5587723538        -0.5587520370
   3    1   3   29         2.0959534344        -2.0962364116
  
   1    2   2    1        -0.0000000000         0.0000000000
   1    2   3    1        -0.0000000000        -0.0000000000
   1    2   2    2         0.0000000000         0.0000000000
   1    2   3    2        -0.0000000000         0.0000000000
   1    2   2    3        -0.0000000000         0.0000000000
   1    2   3    3         0.0000000000        -0.0000000000
   1    2   2    4        -0.0000000000         0.0000000000
   1    2   3    4        -0.0000000000        -0.0000000000
   1    2   2    5        -0.0000000000        -0.0000000000
   1    2   3    5         0.0000000000         0.0000000000
   1    2   2    6         0.0000000000         0.0000000000
   1    2   3    6         0.0000000000        -0.0000000000
   1    2   2    7        -0.0000000000         0.0000000000
   1    2   3    7        -0.0000000000        -0.0000000000
   1    2   2    8         0.0000000000        -0.0000000000
   1    2   3    8        -0.0000000000        -0.0000000000
   1    2   2    9        -0.0000000000         0.0000000000
   1    2   3    9         0.0000000000         0.0000000000
   1    2   2   10        -0.0000000000         0.0000000000
   1    2   3   10         0.0000000000        -0.0000000000
   1    2   2   11         0.0000000000         0.0000000000
   1    2   3   11        -0.0000000000         0.0000000000
   1    2   2   12        -0.0000000000         0.0000000000
   1    2   3   12         0.0000000000         0.0000000000
   1    2   2   13         0.0000000000         0.0000000000
   1    2   3   13        -0.0000000000         0.0000000000
   1    2   2   14        -0.0000000000         0.0000000000
   1    2   3   14         0.0000000000         0.0000000000
   1    2   2   15        -0.0000000000         0.0000000000
   1    2   3   15         0.0000000000         0.0000000000
   1    2   2   16         0.0000000000         0.0000000000
   1    2   3   16         0.0000000000        -0.0000000000
   1    2   2   17         0.0000000000        -0.0000000000
   1    2   3   17         0.0000000000         0.0000000000
   1    2   2   18         0.0000000000        -0.0000000000
   1    2   3   18         0.0000000000        -0.0000000000
   1    2   2   19         0.0000000000        -0.0000000000
   1    2   3   19         0.0000000000        -0.0000000000
   1    2   2   20        -0.0000000000         0.0000000000
   1    2   3   20        -0.0000000000        -0.0000000000
   1    2   2   21        -0.0000000000        -0.0000000000
   1    2   3   21        -0.0000000000         0.0000000000
   1    2   2   22         0.0000000000        -0.0000000000
   1    2   3   22        -0.0000000000        -0.0000000000
   1    2   2   23        -0.0000000000        -0.0000000000
   1    2   3   23        -0.0000000000        -0.0000000000
   1    2   2   24        -0.0000000000        -0.0000000000
   1    2   3   24        -0.0000000000        -0.0000000000
   1    2   2   25         0.0000000000         0.0000000000
   1    2   3   25         0.0000000000         0.0000000000
   1    2   2   26        -0.0000000000         0.0000000000
   1    2   3   26         0.0000000000        -0.0000000000
   1    2   2   27         0.0000000000        -0.0000000000
   1    2   3   27         0.0000000000         0.0000000000
   1    2   2   28        -0.0000000000        -0.0000000000
   1    2   3   28        -0.0000000000        -0.0000000000
   1    2   2   29         0.0000000000        -0.0000000000
   1    2   3   29         0.0000000000         0.0000000000
  
   2    2   1    1        -0.0000000000         0.0000000000
   2    2   3    1        -0.5222517883         0.5223344977
   2    2   1    2         0.0000000000         0.0000000000
   2    2   1    3        -0.0000000000         0.0000000000
   2    2   1    4        -0.0000000000         0.0000000000
   2    2   1    5        -0.0000000000        -0.0000000000
   2    2   1    6         0.0000000000         0.0000000000
   2    2   1    7        -0.0000000000         0.0000000000
   2    2   1    8         0.0000000000        -0.0000000000
   2    2   1    9        -0.0000000000         0.0000000000
   2    2   1   10        -0.0000000000         0.0000000000
   2    2   1   11         0.0000000000         0.0000000000
   2    2   1   12        -0.0000000000         0.0000000000
   2    2   1   13         0.0000000000         0.0000000000
   2    2   1   14        -0.0000000000         0.0000000000
   2    2   1   15        -0.0000000000         0.0000000000
   2    2   1   16         0.0000000000         0.0000000000
   2    2   1   17         0.0000000000        -0.0000000000
   2    2   1   18         0.0000000000        -0.0000000000
   2    2   1   19         0.0000000000        -0.0000000000
   2    2   1   20        -0.0000000000         0.0000000000
   2    2   1   21        -0.0000000000        -0.0000000000
   2    2   1   22         0.0000000000        -0.0000000000
   2    2   1   23        -0.0000000000        -0.0000000000
   2    2   1   24        -0.0000000000        -0.0000000000
   2    2   1   25         0.0000000000         0.0000000000
   2    2   1   26        -0.0000000000         0.0000000000
   2    2   1   27         0.0000000000        -0.0000000000
   2    2   3   27        -0.0723257458         0.0723290442
   2    2   1   28        -0.0000000000        -0.0000000000
   2    2   1   29         0.0000000000        -0.0000000000
  
   3    2   1    1        -0.0000000000        -0.0000000000
   3    2   3    1        14.1959165734        14.1947737928
   3    2   1    2        -0.0000000000         0.0000000000
   3    2   1    3         0.0000000000        -0.0000000000
   3    2   1    4        -0.0000000000        -0.0000000000
   3    2   1    5         0.0000000000         0.0000000000
   3    2   1    6         0.0000000000        -0.0000000000
   3    2   1    7        -0.0000000000        -0.0000000000
   3    2   1    8        -0.0000000000        -0.0000000000
   3    2   1    9         0.0000000000         0.0000000000
   3    2   1   10         0.0000000000        -0.0000000000
   3    2   1   11        -0.0000000000         0.0000000000
   3    2   1   12         0.0000000000         0.0000000000
   3    2   1   13        -0.0000000000         0.0000000000
   3    2   1   14         0.0000000000         0.0000000000
   3    2   1   15         0.0000000000         0.0000000000
   3    2   1   16         0.0000000000        -0.0000000000
   3    2   1   17         0.0000000000         0.0000000000
   3    2   1   18         0.0000000000        -0.0000000000
   3    2   1   19         0.0000000000        -0.0000000000
   3    2   1   20        -0.0000000000        -0.0000000000
   3    2   1   21        -0.0000000000         0.0000000000
   3    2   1   22        -0.0000000000        -0.0000000000
   3    2   1   23        -0.0000000000        -0.0000000000
   3    2   1   24        -0.0000000000        -0.0000000000
   3    2   1   25         0.0000000000         0.0000000000
   3    2   1   26         0.0000000000        -0.0000000000
   3    2   1   27         0.0000000000         0.0000000000
   3    2   3   27        -0.9113967258        -0.9114979949
   3    2   1   28        -0.0000000000        -0.0000000000
   3    2   1   29         0.0000000000         0.0000000000
  
   1    3   2    1         0.0000000000        -0.0000000000
   1    3   3    1         0.0000000000         0.0000000000
   1    3   2    2        -0.0000000000        -0.0000000000
   1    3   3    2         0.0000000000         0.0000000000
   1    3   2    3        -0.0000000000         0.0000000000
   1    3   3    3         0.0000000000         0.0000000000
   1    3   2    4         0.0000000000        -0.0000000000
   1    3   3    4         0.0000000000         0.0000000000
   1    3   2    5        -0.0000000000        -0.0000000000
   1    3   3    5         0.0000000000         0.0000000000
   1    3   2    6         0.0000000000        -0.0000000000
   1    3   3    6        -0.0000000000        -0.0000000000
   1    3   2    7        -0.0000000000         0.0000000000
   1    3   3    7        -0.0000000000        -0.0000000000
   1    3   2    8         0.0000000000        -0.0000000000
   1    3   3    8         0.0000000000         0.0000000000
   1    3   2    9         0.0000000000        -0.0000000000
   1    3   3    9         0.0000000000         0.0000000000
   1    3   2   10        -0.0000000000        -0.0000000000
   1    3   3   10         0.0000000000         0.0000000000
   1    3   2   11         0.0000000000         0.0000000000
   1    3   3   11        -0.0000000000        -0.0000000000
   1    3   2   12         0.0000000000        -0.0000000000
   1    3   3   12        -0.0000000000        -0.0000000000
   1    3   2   13        -0.0000000000         0.0000000000
   1    3   3   13         0.0000000000        -0.0000000000
   1    3   2   14         0.0000000000        -0.0000000000
   1    3   3   14        -0.0000000000        -0.0000000000
   1    3   2   15        -0.0000000000        -0.0000000000
   1    3   3   15         0.0000000000         0.0000000000
   1    3   2   16        -0.0000000000         0.0000000000
   1    3   3   16        -0.0000000000        -0.0000000000
   1    3   2   17        -0.0000000000        -0.0000000000
   1    3   3   17         0.0000000000        -0.0000000000
   1    3   2   18        -0.0000000000         0.0000000000
   1    3   3   18         0.0000000000         0.0000000000
   1    3   2   19        -0.0000000000         0.0000000000
   1    3   3   19         0.0000000000         0.0000000000
   1    3   2   20        -0.0000000000         0.0000000000
   1    3   3   20        -0.0000000000        -0.0000000000
   1    3   2   21         0.0000000000         0.0000000000
   1    3   3   21        -0.0000000000        -0.0000000000
   1    3   2   22        -0.0000000000         0.0000000000
   1    3   3   22         0.0000000000         0.0000000000
   1    3   2   23         0.0000000000         0.0000000000
   1    3   3   23         0.0000000000         0.0000000000
   1    3   2   24        -0.0000000000         0.0000000000
   1    3   3   24         0.0000000000         0.0000000000
   1    3   2   25        -0.0000000000         0.0000000000
   1    3   3   25         0.0000000000         0.0000000000
   1    3   2   26        -0.0000000000         0.0000000000
   1    3   3   26        -0.0000000000        -0.0000000000
   1    3   2   27         0.0000000000        -0.0000000000
   1    3   3   27         0.0000000000        -0.0000000000
   1    3   2   28         0.0000000000         0.0000000000
   1    3   3   28         0.0000000000        -0.0000000000
   1    3   2   29        -0.0000000000        -0.0000000000
   1    3   3   29        -0.0000000000         0.0000000000
  
   2    3   1    1         0.0000000000        -0.0000000000
   2    3   3    1       -10.3196054023        10.3195088408
   2    3   1    2        -0.0000000000        -0.0000000000
   2    3   1    3        -0.0000000000         0.0000000000
   2    3   1    4         0.0000000000        -0.0000000000
   2    3   1    5        -0.0000000000        -0.0000000000
   2    3   1    6         0.0000000000        -0.0000000000
   2    3   1    7        -0.0000000000         0.0000000000
   2    3   1    8         0.0000000000        -0.0000000000
   2    3   1    9         0.0000000000        -0.0000000000
   2    3   1   10        -0.0000000000        -0.0000000000
   2    3   1   11         0.0000000000         0.0000000000
   2    3   1   12         0.0000000000        -0.0000000000
   2    3   1   13        -0.0000000000         0.0000000000
   2    3   1   14         0.0000000000        -0.0000000000
   2    3   1   15        -0.0000000000        -0.0000000000
   2    3   1   16        -0.0000000000         0.0000000000
   2    3   1   17        -0.0000000000        -0.0000000000
   2    3   1   18        -0.0000000000         0.0000000000
   2    3   1   19        -0.0000000000         0.0000000000
   2    3   1   20        -0.0000000000         0.0000000000
   2    3   1   21         0.0000000000         0.0000000000
   2    3   1   22        -0.0000000000         0.0000000000
   2    3   1   23         0.0000000000         0.0000000000
   2    3   1   24        -0.0000000000         0.0000000000
   2    3   1   25        -0.0000000000         0.0000000000
   2    3   1   26        -0.0000000000         0.0000000000
   2    3   1   27         0.0000000000        -0.0000000000
   2    3   3   27         0.5587520370        -0.5587723538
   2    3   1   28         0.0000000000         0.0000000000
   2    3   1   29        -0.0000000000        -0.0000000000
  
   3    3   1    1        -0.0000000000        -0.0000000000
   3    3   3    1       -93.1751813338       -93.1798818671
   3    3   1    2         0.0000000000         0.0000000000
   3    3   1    3         0.0000000000         0.0000000000
   3    3   1    4         0.0000000000         0.0000000000
   3    3   1    5         0.0000000000         0.0000000000
   3    3   1    6        -0.0000000000        -0.0000000000
   3    3   1    7        -0.0000000000        -0.0000000000
   3    3   1    8         0.0000000000         0.0000000000
   3    3   1    9         0.0000000000         0.0000000000
   3    3   1   10         0.0000000000         0.0000000000
   3    3   1   11        -0.0000000000        -0.0000000000
   3    3   1   12        -0.0000000000        -0.0000000000
   3    3   1   13         0.0000000000        -0.0000000000
   3    3   1   14        -0.0000000000        -0.0000000000
   3    3   1   15         0.0000000000         0.0000000000
   3    3   1   16        -0.0000000000        -0.0000000000
   3    3   1   17         0.0000000000        -0.0000000000
   3    3   1   18         0.0000000000         0.0000000000
   3    3   1   19         0.0000000000         0.0000000000
   3    3   1   20        -0.0000000000        -0.0000000000
   3    3   1   21        -0.0000000000        -0.0000000000
   3    3   1   22         0.0000000000         0.0000000000
   3    3   1   23         0.0000000000         0.0000000000
   3    3   1   24         0.0000000000         0.0000000000
   3    3   1   25         0.0000000000         0.0000000000
   3    3   1   26        -0.0000000000        -0.0000000000
   3    3   1   27         0.0000000000         0.0000000000
   3    3   3   27         2.0962364116         2.0959534344
   3    3   1   28         0.0000000000        -0.0000000000
   3    3   1   29        -0.0000000000         0.0000000000
  
   1    4   2    1        -0.0000000000         0.0000000000
   1    4   3    1         0.0000000000        -0.0000000000
   1    4   2    2        -0.0000000000        -0.0000000000
   1    4   3    2        -0.0000000000         0.0000000000
   1    4   2    3         0.0000000000         0.0000000000
   1    4   3    3         0.0000000000        -0.0000000000
   1    4   2    4        -0.0000000000         0.0000000000
   1    4   3    4         0.0000000000         0.0000000000
   1    4   2    5        -0.0000000000        -0.0000000000
   1    4   3    5         0.0000000000        -0.0000000000
   1    4   2    6         0.0000000000         0.0000000000
   1    4   3    6        -0.0000000000         0.0000000000
   1    4   2    7         0.0000000000         0.0000000000
   1    4   3    7        -0.0000000000        -0.0000000000
   1    4   2    8         0.0000000000         0.0000000000
   1    4   3    8         0.0000000000        -0.0000000000
   1    4   2    9         0.0000000000        -0.0000000000
   1    4   3    9        -0.0000000000         0.0000000000
   1    4   2   10        -0.0000000000        -0.0000000000
   1    4   3   10        -0.0000000000         0.0000000000
   1    4   2   11         0.0000000000         0.0000000000
   1    4   3   11        -0.0000000000         0.0000000000
   1    4   2   12        -0.0000000000        -0.0000000000
   1    4   3   12        -0.0000000000        -0.0000000000
   1    4   2   13        -0.0000000000        -0.0000000000
   1    4   3   13        -0.0000000000         0.0000000000
   1    4   2   14         0.0000000000         0.0000000000
   1    4   3   14        -0.0000000000        -0.0000000000
   1    4   2   15         0.0000000000        -0.0000000000
   1    4   3   15        -0.0000000000         0.0000000000
   1    4   2   16         0.0000000000         0.0000000000
   1    4   3   16        -0.0000000000         0.0000000000
   1    4   2   17        -0.0000000000         0.0000000000
   1    4   3   17        -0.0000000000         0.0000000000
   1    4   2   18         0.0000000000        -0.0000000000
   1    4   3   18         0.0000000000        -0.0000000000
   1    4   2   19         0.0000000000        -0.0000000000
   1    4   3   19         0.0000000000        -0.0000000000
   1    4   2   20         0.0000000000         0.0000000000
   1    4   3   20        -0.0000000000         0.0000000000
   1    4   2   21        -0.0000000000        -0.0000000000
   1    4   3   21         0.0000000000        -0.0000000000
   1    4   2   22         0.0000000000         0.0000000000
   1    4   3   22        -0.0000000000        -0.0000000000
   1    4   2   23        -0.0000000000        -0.0000000000
   1    4   3   23         0.0000000000        -0.0000000000
   1    4   2   24         0.0000000000        -0.0000000000
   1    4   3   24        -0.0000000000         0.0000000000
   1    4   2   25         0.0000000000        -0.0000000000
   1    4   3   25         0.0000000000        -0.0000000000
   1    4   2   26         0.0000000000         0.0000000000
   1    4   3   26         0.0000000000        -0.0000000000
   1    4   2   27         0.0000000000        -0.0000000000
   1    4   3   27         0.0000000000        -0.0000000000
   1    4   2   28        -0.0000000000        -0.0000000000
   1    4   3   28        -0.0000000000         0.0000000000
   1    4   2   29        -0.0000000000         0.0000000000
   1    4   3   29         0.0000000000        -0.0000000000
  
   2    4   1    1        -0.0000000000         0.0000000000
   2    4   3    1        -0.0000047087         1.7455023206
   2    4   1    2        -0.0000000000        -0.0000000000
   2    4   1    3         0.0000000000         0.0000000000
   2    4   1    4        -0.0000000000         0.0000000000
   2    4   1    5        -0.0000000000        -0.0000000000
   2    4   1    6         0.0000000000         0.0000000000
   2    4   1    7         0.0000000000         0.0000000000
   2    4   1    8         0.0000000000         0.0000000000
   2    4   1    9         0.0000000000        -0.0000000000
   2    4   1   10        -0.0000000000        -0.0000000000
   2    4   1   11         0.0000000000         0.0000000000
   2    4   1   12        -0.0000000000        -0.0000000000
   2    4   1   13        -0.0000000000        -0.0000000000
   2    4   1   14         0.0000000000         0.0000000000
   2    4   1   15         0.0000000000        -0.0000000000
   2    4   1   16         0.0000000000         0.0000000000
   2    4   1   17        -0.0000000000         0.0000000000
   2    4   1   18         0.0000000000        -0.0000000000
   2    4   1   19         0.0000000000        -0.0000000000
   2    4   1   20         0.0000000000         0.0000000000
   2    4   1   21        -0.0000000000        -0.0000000000
   2    4   1   22         0.0000000000         0.0000000000
   2    4   1   23        -0.0000000000        -0.0000000000
   2    4   1   24         0.0000000000        -0.0000000000
   2    4   1   25         0.0000000000        -0.0000000000
   2    4   1   26         0.0000000000         0.0000000000
   2    4   1   27         0.0000000000        -0.0000000000
   2    4   3   27        -0.0000060454         0.1762333101
   2    4   1   28        -0.0000000000        -0.0000000000
   2    4   1   29        -0.0000000000         0.0000000000
  
   3    4   1    1         0.0000000000         0.0000000000
   3    4   3    1       -21.1152593947         0.0001520873
   3    4   1    2        -0.0000000000         0.0000000000
   3    4   1    3         0.0000000000        -0.0000000000
   3    4   1    4         0.0000000000         0.0000000000
   3    4   1    5         0.0000000000        -0.0000000000
   3    4   1    6        -0.0000000000         0.0000000000
   3    4   1    7        -0.0000000000        -0.0000000000
   3    4   1    8         0.0000000000        -0.0000000000
   3    4   1    9        -0.0000000000         0.0000000000
   3    4   1   10        -0.0000000000         0.0000000000
   3    4   1   11        -0.0000000000         0.0000000000
   3    4   1   12        -0.0000000000        -0.0000000000
   3    4   1   13        -0.0000000000         0.0000000000
   3    4   1   14        -0.0000000000        -0.0000000000
   3    4   1   15        -0.0000000000         0.0000000000
   3    4   1   16        -0.0000000000         0.0000000000
   3    4   1   17        -0.0000000000         0.0000000000
   3    4   1   18         0.0000000000        -0.0000000000
   3    4   1   19         0.0000000000        -0.0000000000
   3    4   1   20        -0.0000000000         0.0000000000
   3    4   1   21         0.0000000000        -0.0000000000
   3    4   1   22        -0.0000000000        -0.0000000000
   3    4   1   23         0.0000000000        -0.0000000000
   3    4   1   24        -0.0000000000         0.0000000000
   3    4   1   25         0.0000000000        -0.0000000000
   3    4   1   26         0.0000000000        -0.0000000000
   3    4   1   27         0.0000000000        -0.0000000000
   3    4   3   27        -0.2965478729         0.0000093656
   3    4   1   28        -0.0000000000         0.0000000000
   3    4   1   29         0.0000000000        -0.0000000000
  
   1    5   2    1         0.0000000000        -0.0000000000
   1    5   3    1        -0.0000000000        -0.0000000000
   1    5   2    2        -0.0000000000         0.0000000000
   1    5   3    2         0.0000000000        -0.0000000000
   1    5   2    3        -0.0000000000         0.0000000000
   1    5   3    3         0.0000000000        -0.0000000000
   1    5   2    4        -0.0000000000         0.0000000000
   1    5   3    4         0.0000000000         0.0000000000
   1    5   2    5        -0.0000000000         0.0000000000
   1    5   3    5         0.0000000000         0.0000000000
   1    5   2    6        -0.0000000000        -0.0000000000
   1    5   3    6        -0.0000000000        -0.0000000000
   1    5   2    7        -0.0000000000         0.0000000000
   1    5   3    7         0.0000000000         0.0000000000
   1    5   2    8        -0.0000000000        -0.0000000000
   1    5   3    8        -0.0000000000         0.0000000000
   1    5   2    9         0.0000000000        -0.0000000000
   1    5   3    9        -0.0000000000        -0.0000000000
   1    5   2   10        -0.0000000000        -0.0000000000
   1    5   3   10         0.0000000000        -0.0000000000
   1    5   2   11         0.0000000000        -0.0000000000
   1    5   3   11         0.0000000000        -0.0000000000
   1    5   2   12         0.0000000000        -0.0000000000
   1    5   3   12         0.0000000000         0.0000000000
   1    5   2   13         0.0000000000        -0.0000000000
   1    5   3   13         0.0000000000         0.0000000000
   1    5   2   14         0.0000000000        -0.0000000000
   1    5   3   14        -0.0000000000         0.0000000000
   1    5   2   15        -0.0000000000         0.0000000000
   1    5   3   15        -0.0000000000         0.0000000000
   1    5   2   16         0.0000000000        -0.0000000000
   1    5   3   16         0.0000000000        -0.0000000000
   1    5   2   17        -0.0000000000        -0.0000000000
   1    5   3   17         0.0000000000         0.0000000000
   1    5   2   18        -0.0000000000        -0.0000000000
   1    5   3   18         0.0000000000        -0.0000000000
   1    5   2   19         0.0000000000        -0.0000000000
   1    5   3   19        -0.0000000000        -0.0000000000
   1    5   2   20         0.0000000000         0.0000000000
   1    5   3   20        -0.0000000000         0.0000000000
   1    5   2   21         0.0000000000         0.0000000000
   1    5   3   21        -0.0000000000        -0.0000000000
   1    5   2   22        -0.0000000000         0.0000000000
   1    5   3   22        -0.0000000000         0.0000000000
   1    5   2   23        -0.0000000000         0.0000000000
   1    5   3   23         0.0000000000        -0.0000000000
   1    5   2   24        -0.0000000000         0.0000000000
   1    5   3   24        -0.0000000000         0.0000000000
   1    5   2   25         0.0000000000         0.0000000000
   1    5   3   25        -0.0000000000         0.0000000000
   1    5   2   26         0.0000000000        -0.0000000000
   1    5   3   26        -0.0000000000        -0.0000000000
   1    5   2   27        -0.0000000000        -0.0000000000
   1    5   3   27         0.0000000000        -0.0000000000
   1    5   2   28         0.0000000000         0.0000000000
   1    5   3   28        -0.0000000000         0.0000000000
   1    5   2   29        -0.0000000000         0.0000000000
   1    5   3   29        -0.0000000000         0.0000000000
  
   2    5   1    1         0.0000000000        -0.0000000000
   2    5   3    1        -1.0271073871         1.0271190137
   2    5   1    2        -0.0000000000         0.0000000000
   2    5   1    3        -0.0000000000         0.0000000000
   2    5   1    4        -0.0000000000         0.0000000000
   2    5   1    5        -0.0000000000         0.0000000000
   2    5   1    6        -0.0000000000        -0.0000000000
   2    5   1    7        -0.0000000000         0.0000000000
   2    5   1    8        -0.0000000000        -0.0000000000
   2    5   1    9         0.0000000000        -0.0000000000
   2    5   1   10        -0.0000000000        -0.0000000000
   2    5   1   11         0.0000000000        -0.0000000000
   2    5   1   12         0.0000000000        -0.0000000000
   2    5   1   13         0.0000000000        -0.0000000000
   2    5   1   14         0.0000000000        -0.0000000000
   2    5   1   15        -0.0000000000         0.0000000000
   2    5   1   16         0.0000000000        -0.0000000000
   2    5   1   17        -0.0000000000        -0.0000000000
   2    5   1   18        -0.0000000000        -0.0000000000
   2    5   1   19         0.0000000000        -0.0000000000
   2    5   1   20         0.0000000000         0.0000000000
   2    5   1   21         0.0000000000         0.0000000000
   2    5   1   22        -0.0000000000         0.0000000000
   2    5   1   23        -0.0000000000         0.0000000000
   2    5   1   24        -0.0000000000         0.0000000000
   2    5   1   25         0.0000000000         0.0000000000
   2    5   1   26         0.0000000000        -0.0000000000
   2    5   1   27        -0.0000000000        -0.0000000000
   2    5   3   27        -0.0443106506         0.0443035156
   2    5   1   28         0.0000000000         0.0000000000
   2    5   1   29        -0.0000000000         0.0000000000
  
   3    5   1    1         0.0000000000         0.0000000000
   3    5   3    1         2.7121431122         2.7115750856
   3    5   1    2         0.0000000000        -0.0000000000
   3    5   1    3         0.0000000000        -0.0000000000
   3    5   1    4         0.0000000000         0.0000000000
   3    5   1    5         0.0000000000         0.0000000000
   3    5   1    6        -0.0000000000        -0.0000000000
   3    5   1    7         0.0000000000         0.0000000000
   3    5   1    8        -0.0000000000         0.0000000000
   3    5   1    9        -0.0000000000        -0.0000000000
   3    5   1   10         0.0000000000        -0.0000000000
   3    5   1   11         0.0000000000        -0.0000000000
   3    5   1   12         0.0000000000         0.0000000000
   3    5   1   13         0.0000000000         0.0000000000
   3    5   1   14        -0.0000000000         0.0000000000
   3    5   1   15        -0.0000000000         0.0000000000
   3    5   1   16         0.0000000000        -0.0000000000
   3    5   1   17         0.0000000000         0.0000000000
   3    5   1   18         0.0000000000        -0.0000000000
   3    5   1   19        -0.0000000000        -0.0000000000
   3    5   1   20        -0.0000000000         0.0000000000
   3    5   1   21        -0.0000000000        -0.0000000000
   3    5   1   22        -0.0000000000         0.0000000000
   3    5   1   23         0.0000000000        -0.0000000000
   3    5   1   24        -0.0000000000         0.0000000000
   3    5   1   25        -0.0000000000         0.0000000000
   3    5   1   26        -0.0000000000        -0.0000000000
   3    5   1   27         0.0000000000         0.0000000000
   3    5   3   27        -0.6052823547        -0.6053528896
   3    5   1   28        -0.0000000000         0.0000000000
   3    5   1   29        -0.0000000000         0.0000000000
  
   1    6   2    1        -0.0000000000         0.0000000000
   1    6   3    1         0.0000000000        -0.0000000000
   1    6   2    2         0.0000000000        -0.0000000000
   1    6   3    2         0.0000000000         0.0000000000
   1    6   2    3         0.0000000000         0.0000000000
   1    6   3    3        -0.0000000000         0.0000000000
   1    6   2    4         0.0000000000        -0.0000000000
   1    6   3    4        -0.0000000000        -0.0000000000
   1    6   2    5        -0.0000000000         0.0000000000
   1    6   3    5        -0.0000000000         0.0000000000
   1    6   2    6        -0.0000000000         0.0000000000
   1    6   3    6         0.0000000000        -0.0000000000
   1    6   2    7         0.0000000000        -0.0000000000
   1    6   3    7         0.0000000000         0.0000000000
   1    6   2    8         0.0000000000         0.0000000000
   1    6   3    8         0.0000000000         0.0000000000
   1    6   2    9        -0.0000000000         0.0000000000
   1    6   3    9        -0.0000000000        -0.0000000000
   1    6   2   10        -0.0000000000        -0.0000000000
   1    6   3   10         0.0000000000         0.0000000000
   1    6   2   11         0.0000000000         0.0000000000
   1    6   3   11         0.0000000000         0.0000000000
   1    6   2   12        -0.0000000000         0.0000000000
   1    6   3   12         0.0000000000         0.0000000000
   1    6   2   13         0.0000000000         0.0000000000
   1    6   3   13         0.0000000000         0.0000000000
   1    6   2   14        -0.0000000000         0.0000000000
   1    6   3   14        -0.0000000000        -0.0000000000
   1    6   2   15        -0.0000000000        -0.0000000000
   1    6   3   15         0.0000000000        -0.0000000000
   1    6   2   16         0.0000000000         0.0000000000
   1    6   3   16         0.0000000000         0.0000000000
   1    6   2   17        -0.0000000000         0.0000000000
   1    6   3   17        -0.0000000000        -0.0000000000
   1    6   2   18         0.0000000000        -0.0000000000
   1    6   3   18         0.0000000000        -0.0000000000
   1    6   2   19         0.0000000000         0.0000000000
   1    6   3   19        -0.0000000000        -0.0000000000
   1    6   2   20        -0.0000000000        -0.0000000000
   1    6   3   20         0.0000000000         0.0000000000
   1    6   2   21         0.0000000000        -0.0000000000
   1    6   3   21         0.0000000000        -0.0000000000
   1    6   2   22        -0.0000000000         0.0000000000
   1    6   3   22        -0.0000000000         0.0000000000
   1    6   2   23         0.0000000000        -0.0000000000
   1    6   3   23         0.0000000000        -0.0000000000
   1    6   2   24         0.0000000000        -0.0000000000
   1    6   3   24         0.0000000000        -0.0000000000
   1    6   2   25         0.0000000000         0.0000000000
   1    6   3   25         0.0000000000         0.0000000000
   1    6   2   26        -0.0000000000         0.0000000000
   1    6   3   26         0.0000000000        -0.0000000000
   1    6   2   27         0.0000000000         0.0000000000
   1    6   3   27        -0.0000000000         0.0000000000
   1    6   2   28        -0.0000000000        -0.0000000000
   1    6   3   28        -0.0000000000        -0.0000000000
   1    6   2   29        -0.0000000000         0.0000000000
   1    6   3   29         0.0000000000         0.0000000000
  
   2    6   1    1        -0.0000000000         0.0000000000
   2    6   3    1         2.6421272307        -2.6421760442
   2    6   1    2         0.0000000000        -0.0000000000
   2    6   1    3         0.0000000000         0.0000000000
   2    6   1    4         0.0000000000        -0.0000000000
   2    6   1    5        -0.0000000000         0.0000000000
   2    6   1    6        -0.0000000000         0.0000000000
   2    6   1    7         0.0000000000        -0.0000000000
   2    6   1    8         0.0000000000         0.0000000000
   2    6   1    9        -0.0000000000         0.0000000000
   2    6   1   10        -0.0000000000        -0.0000000000
   2    6   1   11         0.0000000000         0.0000000000
   2    6   1   12        -0.0000000000         0.0000000000
   2    6   1   13         0.0000000000         0.0000000000
   2    6   1   14        -0.0000000000         0.0000000000
   2    6   1   15        -0.0000000000        -0.0000000000
   2    6   1   16         0.0000000000         0.0000000000
   2    6   1   17        -0.0000000000         0.0000000000
   2    6   1   18         0.0000000000        -0.0000000000
   2    6   1   19         0.0000000000         0.0000000000
   2    6   1   20        -0.0000000000        -0.0000000000
   2    6   1   21         0.0000000000        -0.0000000000
   2    6   1   22        -0.0000000000         0.0000000000
   2    6   1   23         0.0000000000        -0.0000000000
   2    6   1   24         0.0000000000        -0.0000000000
   2    6   1   25         0.0000000000         0.0000000000
   2    6   1   26        -0.0000000000         0.0000000000
   2    6   1   27         0.0000000000         0.0000000000
   2    6   3   27         0.1551221813        -0.1551346403
   2    6   1   28        -0.0000000000        -0.0000000000
   2    6   1   29        -0.0000000000         0.0000000000
  
   3    6   1    1        -0.0000000000        -0.0000000000
   3    6   3    1         5.6393143765         5.6407274281
   3    6   1    2         0.0000000000         0.0000000000
   3    6   1    3        -0.0000000000         0.0000000000
   3    6   1    4        -0.0000000000        -0.0000000000
   3    6   1    5        -0.0000000000         0.0000000000
   3    6   1    6         0.0000000000        -0.0000000000
   3    6   1    7         0.0000000000         0.0000000000
   3    6   1    8         0.0000000000         0.0000000000
   3    6   1    9        -0.0000000000        -0.0000000000
   3    6   1   10         0.0000000000         0.0000000000
   3    6   1   11         0.0000000000         0.0000000000
   3    6   1   12         0.0000000000         0.0000000000
   3    6   1   13         0.0000000000         0.0000000000
   3    6   1   14        -0.0000000000        -0.0000000000
   3    6   1   15         0.0000000000        -0.0000000000
   3    6   1   16         0.0000000000         0.0000000000
   3    6   1   17        -0.0000000000        -0.0000000000
   3    6   1   18         0.0000000000        -0.0000000000
   3    6   1   19        -0.0000000000        -0.0000000000
   3    6   1   20         0.0000000000         0.0000000000
   3    6   1   21         0.0000000000        -0.0000000000
   3    6   1   22        -0.0000000000         0.0000000000
   3    6   1   23         0.0000000000        -0.0000000000
   3    6   1   24         0.0000000000        -0.0000000000
   3    6   1   25         0.0000000000         0.0000000000
   3    6   1   26         0.0000000000        -0.0000000000
   3    6   1   27        -0.0000000000        -0.0000000000
   3    6   3   27         1.1188136107         1.1187069986
   3    6   1   28        -0.0000000000        -0.0000000000
   3    6   1   29         0.0000000000         0.0000000000
  
   1    7   2    1        -0.0000000000         0.0000000000
   1    7   3    1         0.0000000000         0.0000000000
   1    7   2    2        -0.0000000000        -0.0000000000
   1    7   3    2        -0.0000000000         0.0000000000
   1    7   2    3        -0.0000000000        -0.0000000000
   1    7   3    3        -0.0000000000         0.0000000000
   1    7   2    4         0.0000000000        -0.0000000000
   1    7   3    4        -0.0000000000         0.0000000000
   1    7   2    5        -0.0000000000        -0.0000000000
   1    7   3    5         0.0000000000        -0.0000000000
   1    7   2    6         0.0000000000         0.0000000000
   1    7   3    6         0.0000000000        -0.0000000000
   1    7   2    7        -0.0000000000         0.0000000000
   1    7   3    7         0.0000000000         0.0000000000
   1    7   2    8        -0.0000000000        -0.0000000000
   1    7   3    8        -0.0000000000         0.0000000000
   1    7   2    9         0.0000000000        -0.0000000000
   1    7   3    9         0.0000000000        -0.0000000000
   1    7   2   10        -0.0000000000        -0.0000000000
   1    7   3   10         0.0000000000        -0.0000000000
   1    7   2   11        -0.0000000000        -0.0000000000
   1    7   3   11         0.0000000000        -0.0000000000
   1    7   2   12        -0.0000000000        -0.0000000000
   1    7   3   12         0.0000000000        -0.0000000000
   1    7   2   13        -0.0000000000        -0.0000000000
   1    7   3   13         0.0000000000        -0.0000000000
   1    7   2   14        -0.0000000000        -0.0000000000
   1    7   3   14         0.0000000000        -0.0000000000
   1    7   2   15         0.0000000000        -0.0000000000
   1    7   3   15        -0.0000000000         0.0000000000
   1    7   2   16        -0.0000000000        -0.0000000000
   1    7   3   16         0.0000000000        -0.0000000000
   1    7   2   17        -0.0000000000         0.0000000000
   1    7   3   17        -0.0000000000        -0.0000000000
   1    7   2   18         0.0000000000         0.0000000000
   1    7   3   18        -0.0000000000         0.0000000000
   1    7   2   19         0.0000000000        -0.0000000000
   1    7   3   19        -0.0000000000         0.0000000000
   1    7   2   20        -0.0000000000         0.0000000000
   1    7   3   20        -0.0000000000        -0.0000000000
   1    7   2   21         0.0000000000         0.0000000000
   1    7   3   21        -0.0000000000         0.0000000000
   1    7   2   22         0.0000000000        -0.0000000000
   1    7   3   22         0.0000000000         0.0000000000
   1    7   2   23         0.0000000000         0.0000000000
   1    7   3   23        -0.0000000000         0.0000000000
   1    7   2   24        -0.0000000000         0.0000000000
   1    7   3   24        -0.0000000000        -0.0000000000
   1    7   2   25         0.0000000000         0.0000000000
   1    7   3   25         0.0000000000         0.0000000000
   1    7   2   26        -0.0000000000        -0.0000000000
   1    7   3   26         0.0000000000         0.0000000000
   1    7   2   27        -0.0000000000         0.0000000000
   1    7   3   27         0.0000000000         0.0000000000
   1    7   2   28         0.0000000000         0.0000000000
   1    7   3   28         0.0000000000        -0.0000000000
   1    7   2   29        -0.0000000000         0.0000000000
   1    7   3   29         0.0000000000        -0.0000000000
  
   2    7   1    1        -0.0000000000         0.0000000000
   2    7   3    1         0.0000501201        -0.3210957163
   2    7   1    2        -0.0000000000        -0.0000000000
   2    7   1    3        -0.0000000000        -0.0000000000
   2    7   1    4         0.0000000000        -0.0000000000
   2    7   1    5        -0.0000000000        -0.0000000000
   2    7   1    6         0.0000000000         0.0000000000
   2    7   1    7        -0.0000000000         0.0000000000
   2    7   1    8        -0.0000000000        -0.0000000000
   2    7   1    9         0.0000000000        -0.0000000000
   2    7   1   10        -0.0000000000        -0.0000000000
   2    7   1   11        -0.0000000000        -0.0000000000
   2    7   1   12        -0.0000000000        -0.0000000000
   2    7   1   13        -0.0000000000        -0.0000000000
   2    7   1   14        -0.0000000000        -0.0000000000
   2    7   1   15         0.0000000000        -0.0000000000
   2    7   1   16        -0.0000000000        -0.0000000000
   2    7   1   17        -0.0000000000         0.0000000000
   2    7   1   18         0.0000000000         0.0000000000
   2    7   1   19         0.0000000000        -0.0000000000
   2    7   1   20        -0.0000000000         0.0000000000
   2    7   1   21         0.0000000000         0.0000000000
   2    7   1   22         0.0000000000        -0.0000000000
   2    7   1   23         0.0000000000         0.0000000000
   2    7   1   24        -0.0000000000         0.0000000000
   2    7   1   25         0.0000000000         0.0000000000
   2    7   1   26        -0.0000000000        -0.0000000000
   2    7   1   27        -0.0000000000         0.0000000000
   2    7   3   27        -0.0000044882        -0.0470325892
   2    7   1   28         0.0000000000         0.0000000000
   2    7   1   29        -0.0000000000         0.0000000000
  
   3    7   1    1         0.0000000000         0.0000000000
   3    7   3    1         5.3860483650        -0.0000412048
   3    7   1    2        -0.0000000000         0.0000000000
   3    7   1    3        -0.0000000000         0.0000000000
   3    7   1    4        -0.0000000000         0.0000000000
   3    7   1    5         0.0000000000        -0.0000000000
   3    7   1    6         0.0000000000        -0.0000000000
   3    7   1    7         0.0000000000         0.0000000000
   3    7   1    8        -0.0000000000         0.0000000000
   3    7   1    9         0.0000000000        -0.0000000000
   3    7   1   10         0.0000000000        -0.0000000000
   3    7   1   11         0.0000000000        -0.0000000000
   3    7   1   12         0.0000000000        -0.0000000000
   3    7   1   13         0.0000000000        -0.0000000000
   3    7   1   14         0.0000000000        -0.0000000000
   3    7   1   15        -0.0000000000         0.0000000000
   3    7   1   16         0.0000000000        -0.0000000000
   3    7   1   17        -0.0000000000        -0.0000000000
   3    7   1   18        -0.0000000000         0.0000000000
   3    7   1   19        -0.0000000000         0.0000000000
   3    7   1   20        -0.0000000000        -0.0000000000
   3    7   1   21        -0.0000000000         0.0000000000
   3    7   1   22         0.0000000000         0.0000000000
   3    7   1   23        -0.0000000000         0.0000000000
   3    7   1   24        -0.0000000000        -0.0000000000
   3    7   1   25         0.0000000000         0.0000000000
   3    7   1   26         0.0000000000         0.0000000000
   3    7   1   27         0.0000000000         0.0000000000
   3    7   3   27         0.3717617943        -0.0000233311
   3    7   1   28         0.0000000000        -0.0000000000
   3    7   1   29         0.0000000000        -0.0000000000
  
   1    8   2    1         0.0000000000        -0.0000000000
   1    8   3    1        -0.0000000000         0.0000000000
   1    8   2    2         0.0000000000         0.0000000000
   1    8   3    2        -0.0000000000         0.0000000000
   1    8   2    3         0.0000000000         0.0000000000
   1    8   3    3         0.0000000000        -0.0000000000
   1    8   2    4         0.0000000000        -0.0000000000
   1    8   3    4         0.0000000000         0.0000000000
   1    8   2    5        -0.0000000000         0.0000000000
   1    8   3    5        -0.0000000000        -0.0000000000
   1    8   2    6         0.0000000000        -0.0000000000
   1    8   3    6         0.0000000000        -0.0000000000
   1    8   2    7        -0.0000000000         0.0000000000
[...]
- nonlop(forces)                69.839   1.0     69.883   1.0         112320      -1.00        1.00       1.00
- pspini                        36.783   0.5     36.781   0.5             24      -1.00        1.00       1.00
- fourdp                        31.808   0.4     31.809   0.4           5832      -1.00        1.00       1.00
- dfpt_vtorho-kpt loop           9.792   0.1      9.788   0.1            720      -1.00        1.00       1.00
- getghc-other                   9.481   0.1      9.004   0.1            -24      -1.00        1.05       1.05
- xc:pot/=fourdp                 9.030   0.1      9.029   0.1           5664      -1.00        1.00       1.00
- dfpt_vtorho (1)                8.752   0.1      8.756   0.1            720      -1.00        1.00       1.00
- getgh1c_setup                  8.620   0.1      8.621   0.1            720      -1.00        1.00       1.00
- symrhg(no FFT)                 6.640   0.1      6.641   0.1            744      -1.00        1.00       1.00
- mkrho/=                        5.268   0.1      5.268   0.1             48      -1.00        1.00       1.00
- dfpt_dyxc1                     4.298   0.1      4.298   0.1             24      -1.00        1.00       1.00
- newkpt(excl. rwwf   )          3.587   0.0      3.587   0.0            -24      -1.00        1.00       1.00
- mkffnl                         3.357   0.0      3.358   0.0           1504      -1.00        1.00       1.00
- fourwf%(den)                   3.039   0.0      3.040   0.0           1856      -1.00        1.00       1.00
- invars2                        2.501   0.0      2.501   0.0             24      -1.00        1.00       1.00
- wfsinp(excl. calls)            0.939   0.0      0.939   0.0             72      -1.00        1.00       1.00
- inwffil(excl. calls)           0.855   0.0      1.109   0.0             96      -1.00        0.77       0.77
- abinit(2)                      0.616   0.0      0.616   0.0             24      -1.00        1.00       1.00
- setsym                         0.560   0.0      0.560   0.0             48      -1.00        1.00       1.00
- listkk                         0.068   0.0      0.069   0.0             72      -1.00        0.98       0.98
- mkcore                         0.064   0.0      0.064   0.0             48      -1.00        1.00       1.00
- kpgsph                         0.060   0.0      0.060   0.0           1288      -1.00        1.00       1.00
- dfpt_scfcv  (1)                0.011   0.0      0.011   0.0             24      -1.00        1.00       1.00
- dfpt_vtowfk (1)                0.008   0.0      0.007   0.0            720      -1.00        1.08       1.08
- others (97)                  -81.390  -1.1    -82.888  -1.1             -1      -1.00        0.98       0.98
-<END_TIMER>

- subtotal                    6949.179  96.1   6949.172  96.0                                  1.00       1.00

 Partitioning of abinit
- abinit                      7234.805 100.0   7235.333 100.0             24                   1.00       1.00
 
- indefo+macroin+invars2m        2.507   0.0      2.507   0.0             24                   1.00       1.00
- abinit(4)                      3.926   0.1      3.934   0.1             24                   1.00       1.00
- driver                      7229.393  99.9   7229.912  99.9             24                   1.00       1.00

- subtotal                    7234.805 100.0   7235.333 100.0                                  1.00       1.00

 Partitioning of driver
- driver                      7229.393  99.9   7229.912  99.9             24                   1.00       1.00
 
- respfn                      7229.366  99.9   7229.885  99.9             24                   1.00       1.00

- subtotal                    7229.393  99.9   7229.912  99.9                                  1.00       1.00

 Partitioning of respfn
- respfn                      7229.366  99.9   7229.885  99.9             24                   1.00       1.00
 
- respfn(pspini)                36.783   0.5     36.781   0.5             24                   1.00       1.00
- respfn(inwffil)                2.088   0.0      2.339   0.0             24                   0.89       0.89
- respfn(frozen)                27.448   0.4     27.448   0.4             24                   1.00       1.00
- respfn(dfpt_dyxc1+bef.df       5.061   0.1      5.061   0.1             24                   1.00       1.00
- dfpt_loper                  7154.921  98.9   7155.190  98.9             24                   1.00       1.00

- subtotal                    7227.646  99.9   7228.165  99.9                                  1.00       1.00

 Partitioning of dfpt_looppert
- dfpt_loper                  7154.921  98.9   7155.190  98.9             24                   1.00       1.00
 
- dfpt_loper(inwffil)            6.087   0.1      6.092   0.1             72                   1.00       1.00
- dfpt_scfcv                  7137.476  98.7   7137.186  98.6             24                   1.00       1.00
- dfpt_loper(outwf)              9.249   0.1      9.803   0.1             24                   0.94       0.94
- (other)                        2.050   0.0      2.051   0.0             -1                   1.00       1.00

- subtotal                    7154.921  98.9   7155.190  98.9                                  1.00       1.00

 Partitioning of dfpt_scfcv
- dfpt_scfcv                  7137.476  98.7   7137.186  98.6             24                   1.00       1.00
 
- dfpt_vtorho                 6992.515  96.7   6992.224  96.6            720                   1.00       1.00
- dfpt_rhotov                   21.193   0.3     21.196   0.3            744                   1.00       1.00
- dfpt_scfcv-scprqt              2.768   0.0      2.768   0.0            720                   1.00       1.00
- dfpt_newvtr                   54.871   0.8     54.875   0.8            720                   1.00       1.00
- dfpt_nselt/nstdy/nstpaw       63.761   0.9     63.759   0.9             24                   1.00       1.00

- subtotal                    7135.278  98.6   7134.996  98.6                                  1.00       1.00

 Partitioning of dfpt_vtorho
- dfpt_vtorho                 6992.515  96.7   6992.224  96.6            720                   1.00       1.00
 
- dfpt_vtorho (1)                8.752   0.1      8.756   0.1            720                   1.00       1.00
- dfpt_vtowfk                 5603.184  77.4   5602.961  77.4            720                   1.00       1.00
- dfpt_vtorho-kpt loop           9.792   0.1      9.788   0.1            720                   1.00       1.00
- dfpt_vtorho:MPI             1353.439  18.7   1353.375  18.7            720                   1.00       1.00
- dfpt_vtorho (4)               17.341   0.2     17.341   0.2            720                   1.00       1.00

- subtotal                    6992.508  96.7   6992.221  96.6                                  1.00       1.00

 Partitioning of dfpt_vtowfk
- dfpt_vtowfk                 5603.184  77.4   5602.961  77.4            720                   1.00       1.00
 
- dfpt_cgwf                   5300.474  73.3   5300.206  73.3          28800                   1.00       1.00
- fourwf%dfpt_accrho%dfpt_     207.049   2.9    207.132   2.9          83520                   1.00       1.00
- corrmetalwf1%dfpt_vtowfk       7.253   0.1      7.260   0.1          28800                   1.00       1.00
- dfpt_vtowfk(contrib)          88.397   1.2     88.353   1.2            -24                   1.00       1.00

- subtotal                    5603.184  77.4   5602.961  77.4                                  1.00       1.00

 Partitioning of dfpt_cgwf
- dfpt_cgwf                   5300.474  73.3   5300.206  73.3          28800                   1.00       1.00
 
- getghc%dfpt_cgwf            1124.616  15.5   1124.525  15.5         143987                   1.00       1.00
- getgh1c%dfpt_cgwf            170.509   2.4    170.505   2.4          28800                   1.00       1.00
- projbd%dfpt_cgwf            3917.308  54.1   3918.570  54.2         287978                   1.00       1.00
- nonlop%dfpt_cgwf !2           36.171   0.5     36.190   0.5          28800                   1.00       1.00
- fourwf%dfpt_cgwf             133.265   1.8    133.309   1.8          28800                   1.00       1.00

- subtotal                    5300.474  73.3   5300.206  73.3                                  1.00       1.00

 Partitioning of getghc
- getghc                      1124.616  15.5   1124.525  15.5         143987                   1.00       1.00
 
- fourwf%getghc                577.232   8.0    577.394   8.0         143987                   1.00       1.00
- nonlop%getghc                537.903   7.4    538.127   7.4         143987                   1.00       1.00
- getghc-other                   9.481   0.1      9.004   0.1            -24                   1.05       1.05

- subtotal                    1124.616  15.5   1124.525  15.5                                  1.00       1.00

 Partitioning of fourwf (upwards partitioning)
- fourwf                       920.586  12.7    920.875  12.7         258163                   1.00       1.00
 
- fourwf%getghc                577.232   8.0    577.394   8.0         143987                   1.00       1.00
- fourwf%dfpt_cgwf             133.265   1.8    133.309   1.8          28800                   1.00       1.00
- fourwf%dfpt_accrho%dfpt_     207.049   2.9    207.132   2.9          83520                   1.00       1.00
- fourwf%mkrho2                  3.039   0.0      3.040   0.0           1856                   1.00       1.00

- subtotal                     920.586  12.7    920.875  12.7                                  1.00       1.00

 Partitioning of mkrho (upwards partitioning)
- mkrho                          5.815   0.1      5.814   0.1             24                   1.00       1.00
 
- mkrho%respfn                   5.815   0.1      5.814   0.1             24                   1.00       1.00

- subtotal                       5.815   0.1      5.814   0.1                                  1.00       1.00

 Partitioning of inwffil
- inwffil                        8.096   0.1      8.350   0.1             96                   0.97       0.97
 
- inwffil(call wfsinp)           3.609   0.0      3.610   0.0             72                   1.00       1.00
- inwffil(call newkpt)           3.632   0.1      3.632   0.1             96                   1.00       1.00

- subtotal                       8.095   0.1      8.350   0.1                                  0.97       0.97

 Partitioning of wfsinp
- wfsinp                         3.609   0.0      3.609   0.0             72                   1.00       1.00
 
- wfsinp(call  initwf)           2.669   0.0      2.670   0.0             64                   1.00       1.00

- subtotal                       3.609   0.0      3.609   0.0                                  1.00       1.00

 Partitioning of initwf
- initwf                         2.669   0.0      2.670   0.0             64                   1.00       1.00
 
- rwwf%initwf(RF)                2.666   0.0      2.667   0.0             64                   1.00       1.00

- subtotal                       2.669   0.0      2.669   0.0                                  1.00       1.00

 Partitioning of newkpt
- newkpt                         3.631   0.1      3.631   0.1             96                   1.00       1.00
 
- newkpt(call wfconv)            1.594   0.0      1.595   0.0             88                   1.00       1.00
- newkpt(after loop   )          1.973   0.0      1.973   0.0             96                   1.00       1.00

- subtotal                       3.587   0.0      3.587   0.0                                  1.00       1.00

 Partitioning of  fourdp (upwards partitioning)
- fourdp                        31.808   0.4     31.809   0.4           5832                   1.00       1.00
 
- fourdp%(other)                31.808   0.4     31.809   0.4           5832                   1.00       1.00

- subtotal                      31.808   0.4     31.809   0.4                                  1.00       1.00
-
-Synchronisation (=leave_test) and MPI calls 
- communic.MPI                1362.681  18.8   1362.498  18.8         116171                   1.00       1.00
-
- wfsinp:synchro                 0.937   0.0      0.937   0.0             72                   1.00       1.00
- mkrho :MPIrhor                 2.018   0.0      2.018   0.0             24                   1.00       1.00
- subtotal                       2.956   0.0      2.955   0.0                                  1.00       1.00

 Additional information
- timana(1)                      0.001   0.0      0.001   0.0             24                   1.07       1.07
- total timab                    0.000   0.0      0.000   0.0        1262582                   0.00       0.00
- fourwf                       920.586  12.7    920.875  12.7         258163                   1.00       1.00
- nonlop(dyfrnl)                11.075   0.2     11.076   0.2           1920                   1.00       1.00
- nonlop(total)                618.817   8.6    619.086   8.6         258227                   1.00       1.00
- fourwf%(G->r)                207.049   2.9    207.132   2.9          83520                   1.00       1.00


 Detailed analysis of some time consuming routines 
                                  tcpu    ncalls  tcpu/ncalls    ndata tcpu/ncalls/ndata
                                 (sec)                (msec)              (microsec)
- fourwf%(pot)                 710.497    172787       4.112    345600       0.012
- fourwf%(den)                   3.039      1856       1.637    172800       0.009
- fourdp                        31.808      5832       5.454    172800       0.032
- nonlop(apply)                537.903    143987       3.736    243339       0.015
- nonlop(forces)                69.839    112320       0.622    243339       0.003
- nonlop(forstr)                 0.000         0
- projbd                      3917.308    287978      13.603   1006920       0.014
- xc:pot/=fourdp                 9.030      5664       1.594    172800       0.009

================================================================================

 Suggested references for the acknowledgment of ABINIT usage.

 The users of ABINIT have little formal obligations with respect to the ABINIT group
 (those specified in the GNU General Public License, http://www.gnu.org/copyleft/gpl.txt).
 However, it is common practice in the scientific literature,
 to acknowledge the efforts of people that have made the research possible.
 In this spirit, please find below suggested citations of work written by ABINIT developers,
 corresponding to implementations inside of ABINIT that you have used in the present run.
 Note also that it will be of great value to readers of publications presenting these results,
 to read papers enabling them to understand the theoretical formalism and details
 of the ABINIT implementation.
 For information on why they are suggested, see also https://docs.abinit.org/theory/acknowledgments.
-
- [1] Specification of an extensible and portable file format for electronic structure and crystallographic data
- X. Gonze, C.-O. Almbladh, A. Cucca, D. Caliste, C. Freysoldt, M. Marques, V. Olevano, Y. Pouillon, M.J. Verstraete,
- Comput. Material Science 43, 1056 (2008).
- Comment: to be cited in case the ETSF_IO file format is used, i.e. iomode=3.
- DOI and bibtex: see https://docs.abinit.org/theory/bibliography/#gonze2008
-
- [2] The Abinit project: Impact, environment and recent developments.
- Computer Phys. Comm. 248, 107042 (2020).
- X.Gonze, B. Amadon, G. Antonius, F.Arnardi, L.Baguet, J.-M.Beuken,
- J.Bieder, F.Bottin, J.Bouchet, E.Bousquet, N.Brouwer, F.Bruneval,
- G.Brunin, T.Cavignac, J.-B. Charraud, Wei Chen, M.Cote, S.Cottenier,
- J.Denier, G.Geneste, Ph.Ghosez, M.Giantomassi, Y.Gillet, O.Gingras,
- D.R.Hamann, G.Hautier, Xu He, N.Helbig, N.Holzwarth, Y.Jia, F.Jollet,
- W.Lafargue-Dit-Hauret, K.Lejaeghere, M.A.L.Marques, A.Martin, C.Martins,
- H.P.C. Miranda, F.Naccarato, K. Persson, G.Petretto, V.Planes, Y.Pouillon,
- S.Prokhorenko, F.Ricci, G.-M.Rignanese, A.H.Romero, M.M.Schmitt, M.Torrent,
- M.J.van Setten, B.Van Troeye, M.J.Verstraete, G.Zerah and J.W.Zwanzig
- Comment: the fifth generic paper describing the ABINIT project.
- Note that a version of this paper, that is not formatted for Computer Phys. Comm. 
- is available at https://www.abinit.org/sites/default/files/ABINIT20.pdf .
- The licence allows the authors to put it on the Web.
- DOI and bibtex: see https://docs.abinit.org/theory/bibliography/#gonze2020
-
- [3] First-principles responses of solids to atomic displacements and homogeneous electric fields:,
- implementation of a conjugate-gradient algorithm. X. Gonze, Phys. Rev. B55, 10337 (1997).
- Comment: Non-vanishing rfphon and/or rfelfd, in the norm-conserving case.
- DOI and bibtex: see https://docs.abinit.org/theory/bibliography/#gonze1997
-
- [4] Dynamical matrices, Born effective charges, dielectric permittivity tensors, and ,
- interatomic force constants from density-functional perturbation theory,
- X. Gonze and C. Lee, Phys. Rev. B55, 10355 (1997).
- Comment: Non-vanishing rfphon and/or rfelfd, in the norm-conserving case.
- DOI and bibtex: see https://docs.abinit.org/theory/bibliography/#gonze1997a
-
- [5] ABINIT: Overview, and focus on selected capabilities
- J. Chem. Phys. 152, 124102 (2020).
- A. Romero, D.C. Allan, B. Amadon, G. Antonius, T. Applencourt, L.Baguet,
- J.Bieder, F.Bottin, J.Bouchet, E.Bousquet, F.Bruneval,
- G.Brunin, D.Caliste, M.Cote,
- J.Denier, C. Dreyer, Ph.Ghosez, M.Giantomassi, Y.Gillet, O.Gingras,
- D.R.Hamann, G.Hautier, F.Jollet, G. Jomard,
- A.Martin, 
- H.P.C. Miranda, F.Naccarato, G.Petretto, N.A. Pike, V.Planes,
- S.Prokhorenko, T. Rangel, F.Ricci, G.-M.Rignanese, M.Royo, M.Stengel, M.Torrent,
- M.J.van Setten, B.Van Troeye, M.J.Verstraete, J.Wiktor, J.W.Zwanziger, and X.Gonze.
- Comment: a global overview of ABINIT, with focus on selected capabilities .
- Note that a version of this paper, that is not formatted for J. Chem. Phys 
- is available at https://www.abinit.org/sites/default/files/ABINIT20_JPC.pdf .
- The licence allows the authors to put it on the Web.
- DOI and bibtex: see https://docs.abinit.org/theory/bibliography/#romero2020
-
- [6] Recent developments in the ABINIT software package.
- Computer Phys. Comm. 205, 106 (2016).
- X.Gonze, F.Jollet, F.Abreu Araujo, D.Adams, B.Amadon, T.Applencourt,
- C.Audouze, J.-M.Beuken, J.Bieder, A.Bokhanchuk, E.Bousquet, F.Bruneval
- D.Caliste, M.Cote, F.Dahm, F.Da Pieve, M.Delaveau, M.Di Gennaro,
- B.Dorado, C.Espejo, G.Geneste, L.Genovese, A.Gerossier, M.Giantomassi,
- Y.Gillet, D.R.Hamann, L.He, G.Jomard, J.Laflamme Janssen, S.Le Roux,
- A.Levitt, A.Lherbier, F.Liu, I.Lukacevic, A.Martin, C.Martins,
- M.J.T.Oliveira, S.Ponce, Y.Pouillon, T.Rangel, G.-M.Rignanese,
- A.H.Romero, B.Rousseau, O.Rubel, A.A.Shukri, M.Stankovski, M.Torrent,
- M.J.Van Setten, B.Van Troeye, M.J.Verstraete, D.Waroquier, J.Wiktor,
- B.Xu, A.Zhou, J.W.Zwanziger.
- Comment: the fourth generic paper describing the ABINIT project.
- Note that a version of this paper, that is not formatted for Computer Phys. Comm. 
- is available at https://www.abinit.org/sites/default/files/ABINIT16.pdf .
- The licence allows the authors to put it on the Web.
- DOI and bibtex: see https://docs.abinit.org/theory/bibliography/#gonze2016
-
- Proc.   0 individual time (sec): cpu=        301.5  wall=        301.5

================================================================================

 Calculation completed.
.Delivered   6 WARNINGs and   0 COMMENTs to log file.
+Overall time at end (sec) : cpu=       7235.3  wall=       7235.8
