
.Version 8.8.1 of ABINIT 
.(MPI version, prepared for a x86_64_linux_gnu5.3 computer) 

.Copyright (C) 1998-2018 ABINIT group . 
 ABINIT comes with ABSOLUTELY NO WARRANTY.
 It is free software, and you are welcome to redistribute it
 under certain conditions (GNU General Public License,
 see ~abinit/COPYING or http://www.gnu.org/copyleft/gpl.txt).

 ABINIT is a project of the Universite Catholique de Louvain,
 Corning Inc. and other collaborators, see ~abinit/doc/developers/contributors.txt .
 Please read ~abinit/doc/users/acknowledgments.html for suggested
 acknowledgments of the ABINIT effort.
 For more information, see https://www.abinit.org .

.Starting date : Tue 24 Apr 2018.
- ( at 07h20 )
  
- input  file    -> tdfpt_04.in
- output file    -> tdfpt_04_MPI24.out
- root for input  files -> tdfpt_04_MPI24i
- root for output files -> tdfpt_04_MPI24o


 Symmetries : space group Pm m m (# 47); Bravais oP (primitive ortho.)
================================================================================
 Values of the parameters that define the memory need of the present run (RF).
     intxc =       0      iscf =       7    lmnmax =       4     lnmax =       4
     mgfft =     192  mpssoang =       3    mqgrid =    9226     natom =      29
  nloc_mem =       1    nspden =       1   nspinor =       1    nsppol =       1
      nsym =       8    n1xccc =    2501    ntypat =       3    occopt =       1
   xclevel =       1
-    mband =         120        mffmem =           1         mkmem =           1
-   mkqmem =           1        mk1mem =           1           mpw =        8428
      nfft =      172800          nkpt =          16
================================================================================
P This job should need less than                     103.037 Mbytes of memory.
  Rough estimation (10% accuracy) of disk space for files :
_ WF disk file :    246.916 Mbytes ; DEN or POT disk file :      1.320 Mbytes.
================================================================================

--------------------------------------------------------------------------------
------------- Echo of variables that govern the present computation ------------
--------------------------------------------------------------------------------
-
- outvars: echo of selected default values                                      
-   iomode0 =  0 , fftalg0 =312 , wfoptalg0 =  0
-
- outvars: echo of global parameters not present in the input file              
-  max_nthreads =    0
-
 -outvars: echo values of preprocessed input variables --------
            acell      7.5589045315E+00  7.5589045315E+00  5.2912331721E+01 Bohr
              amu      1.37327000E+02  4.78800000E+01  1.59994000E+01
             ecut      1.50000000E+01 Hartree
-          fftalg         312
           irdwfk           1
              ixc           3
              kpt      1.25000000E-01  1.25000000E-01  5.00000000E-01
                       3.75000000E-01  1.25000000E-01  5.00000000E-01
                      -3.75000000E-01  1.25000000E-01  5.00000000E-01
                      -1.25000000E-01  1.25000000E-01  5.00000000E-01
                       1.25000000E-01  3.75000000E-01  5.00000000E-01
                       3.75000000E-01  3.75000000E-01  5.00000000E-01
                      -3.75000000E-01  3.75000000E-01  5.00000000E-01
                      -1.25000000E-01  3.75000000E-01  5.00000000E-01
                       1.25000000E-01 -3.75000000E-01  5.00000000E-01
                       3.75000000E-01 -3.75000000E-01  5.00000000E-01
                      -3.75000000E-01 -3.75000000E-01  5.00000000E-01
                      -1.25000000E-01 -3.75000000E-01  5.00000000E-01
                       1.25000000E-01 -1.25000000E-01  5.00000000E-01
                       3.75000000E-01 -1.25000000E-01  5.00000000E-01
                      -3.75000000E-01 -1.25000000E-01  5.00000000E-01
                      -1.25000000E-01 -1.25000000E-01  5.00000000E-01
           kptopt           3
         kptrlatt        4    0    0      0    4    0      0    0    1
          kptrlen      3.02356181E+01
P           mkmem           1
P          mkqmem           1
P          mk1mem           1
            natom          29
            nband         120
            ngfft          30      30     192
             nkpt          16
             nqpt           1
            nstep          18
             nsym           8
           ntypat           3
              occ      2.000000  2.000000  2.000000  2.000000  2.000000  2.000000
                       2.000000  2.000000  2.000000  2.000000  2.000000  2.000000
                       2.000000  2.000000  2.000000  2.000000  2.000000  2.000000
                       2.000000  2.000000  2.000000  2.000000  2.000000  2.000000
                       2.000000  2.000000  2.000000  2.000000  2.000000  2.000000
                       2.000000  2.000000  2.000000  2.000000  2.000000  2.000000
                       2.000000  2.000000  2.000000  2.000000  2.000000  2.000000
                       2.000000  2.000000  2.000000  2.000000  2.000000  2.000000
                       2.000000  2.000000  2.000000  2.000000  2.000000  2.000000
                       2.000000  2.000000  2.000000  2.000000  2.000000  2.000000
                       2.000000  2.000000  2.000000  2.000000  2.000000  2.000000
                       2.000000  2.000000  2.000000  2.000000  2.000000  2.000000
                       2.000000  2.000000  2.000000  2.000000  2.000000  2.000000
                       2.000000  2.000000  2.000000  2.000000  2.000000  2.000000
                       2.000000  2.000000  2.000000  2.000000  2.000000  2.000000
                       2.000000  2.000000  2.000000  2.000000  2.000000  2.000000
                       2.000000  2.000000  2.000000  2.000000  2.000000  2.000000
                       2.000000  2.000000  2.000000  2.000000  2.000000  2.000000
                       2.000000  2.000000  2.000000  2.000000  2.000000  2.000000
                       2.000000  2.000000  0.000000  0.000000  0.000000  0.000000
        optdriver           1
           prtden           0
              qpt      0.00000000E+00  2.50000000E-01  0.00000000E+00
            rfdir           0       0       1
           rfphon           1
           shiftk      5.00000000E-01  5.00000000E-01  5.00000000E-01
          spgroup          47
           symrel      1  0  0   0  1  0   0  0  1      -1  0  0   0 -1  0   0  0 -1
                      -1  0  0   0  1  0   0  0 -1       1  0  0   0 -1  0   0  0  1
                      -1  0  0   0 -1  0   0  0  1       1  0  0   0  1  0   0  0 -1
                       1  0  0   0 -1  0   0  0 -1      -1  0  0   0  1  0   0  0  1
           timopt          -2
            tnons      0.0000000  0.0000000  0.0000000     0.0000000  0.0000000 -0.4285714
                       0.0000000  0.0000000 -0.4285714     0.0000000  0.0000000  0.0000000
                       0.0000000  0.0000000  0.0000000     0.0000000  0.0000000 -0.4285714
                       0.0000000  0.0000000 -0.4285714     0.0000000  0.0000000  0.0000000
           tolrde      0.00000000E+00
           tolwfr      1.00000000E-22
            typat      3  3  2  3  3  2  1  3  3  3  2  1  3  3  3  2  1  3  3  3
                       2  1  3  3  3  2  3  3  2
              wtk        0.06250    0.06250    0.06250    0.06250    0.06250    0.06250
                         0.06250    0.06250    0.06250    0.06250    0.06250    0.06250
                         0.06250    0.06250    0.06250    0.06250
           xangst      0.0000000000E+00  0.0000000000E+00 -2.2560597003E+00
                       2.0000000000E+00  2.0000000000E+00 -1.7358821221E+00
                       0.0000000000E+00  2.0000000000E+00 -1.9382320766E+00
                       2.0000000000E+00  0.0000000000E+00  3.4528873159E-01
                       0.0000000000E+00  2.0000000000E+00 -5.5854849972E-02
                       2.0000000000E+00  2.0000000000E+00  1.7294657522E-01
                       0.0000000000E+00  0.0000000000E+00  2.1069676394E+00
                       2.0000000000E+00  2.0000000000E+00  2.1255940917E+00
                       2.0000000000E+00  0.0000000000E+00  4.1033165071E+00
                       0.0000000000E+00  2.0000000000E+00  4.0568887931E+00
                       2.0000000000E+00  2.0000000000E+00  4.0843127188E+00
                       0.0000000000E+00  0.0000000000E+00  6.0394536284E+00
                       2.0000000000E+00  2.0000000000E+00  6.0414127393E+00
                       2.0000000000E+00  0.0000000000E+00  8.0000000000E+00
                       0.0000000000E+00  2.0000000000E+00  8.0000000000E+00
                       2.0000000000E+00  2.0000000000E+00  8.0000000000E+00
                       0.0000000000E+00  0.0000000000E+00  9.9605463720E+00
                       2.0000000000E+00  2.0000000000E+00  9.9585872606E+00
                       2.0000000000E+00  0.0000000000E+00  1.1896683493E+01
                       0.0000000000E+00  2.0000000000E+00  1.1943111207E+01
                       2.0000000000E+00  2.0000000000E+00  1.1915687281E+01
                       0.0000000000E+00  0.0000000000E+00  1.3893032361E+01
                       2.0000000000E+00  2.0000000000E+00  1.3874405908E+01
                       2.0000000000E+00  0.0000000000E+00  1.5654711268E+01
                       0.0000000000E+00  2.0000000000E+00  1.6055854850E+01
                       2.0000000000E+00  2.0000000000E+00  1.5827053425E+01
                       0.0000000000E+00  0.0000000000E+00  1.8256059700E+01
                       2.0000000000E+00  2.0000000000E+00  1.7735882122E+01
                       0.0000000000E+00  2.0000000000E+00  1.7938232077E+01
            xcart      0.0000000000E+00  0.0000000000E+00 -4.2633349730E+00
                       3.7794522658E+00  3.7794522658E+00 -3.2803418097E+00
                       0.0000000000E+00  3.7794522658E+00 -3.6627278067E+00
                       3.7794522658E+00  0.0000000000E+00  6.5250113947E-01
                       0.0000000000E+00  3.7794522658E+00 -1.0555036964E-01
                       3.7794522658E+00  3.7794522658E+00  3.2682166278E-01
                       0.0000000000E+00  0.0000000000E+00  3.9815918094E+00
                       3.7794522658E+00  3.7794522658E+00  4.0167907030E+00
                       3.7794522658E+00  0.0000000000E+00  7.7541444349E+00
                       0.0000000000E+00  3.7794522658E+00  7.6664087705E+00
                       3.7794522658E+00  3.7794522658E+00  7.7182324796E+00
                       0.0000000000E+00  0.0000000000E+00  1.1412913350E+01
                       3.7794522658E+00  3.7794522658E+00  1.1416615533E+01
                       3.7794522658E+00  0.0000000000E+00  1.5117809063E+01
                       0.0000000000E+00  3.7794522658E+00  1.5117809063E+01
                       3.7794522658E+00  3.7794522658E+00  1.5117809063E+01
                       0.0000000000E+00  0.0000000000E+00  1.8822704777E+01
                       3.7794522658E+00  3.7794522658E+00  1.8819002593E+01
                       3.7794522658E+00  0.0000000000E+00  2.2481473692E+01
                       0.0000000000E+00  3.7794522658E+00  2.2569209355E+01
                       3.7794522658E+00  3.7794522658E+00  2.2517385647E+01
                       0.0000000000E+00  0.0000000000E+00  2.6254026317E+01
                       3.7794522658E+00  3.7794522658E+00  2.6218827423E+01
                       3.7794522658E+00  0.0000000000E+00  2.9583116986E+01
                       0.0000000000E+00  3.7794522658E+00  3.0341168496E+01
                       3.7794522658E+00  3.7794522658E+00  2.9908796464E+01
                       0.0000000000E+00  0.0000000000E+00  3.4498953099E+01
                       3.7794522658E+00  3.7794522658E+00  3.3515959935E+01
                       0.0000000000E+00  3.7794522658E+00  3.3898345933E+01
             xred      0.0000000000E+00  0.0000000000E+00 -8.0573560725E-02
                       5.0000000000E-01  5.0000000000E-01 -6.1995790074E-02
                       0.0000000000E+00  5.0000000000E-01 -6.9222574163E-02
                       5.0000000000E-01  0.0000000000E+00  1.2331740414E-02
                       0.0000000000E+00  5.0000000000E-01 -1.9948160704E-03
                       5.0000000000E-01  5.0000000000E-01  6.1766634006E-03
                       0.0000000000E+00  0.0000000000E+00  7.5248844266E-02
                       5.0000000000E-01  5.0000000000E-01  7.5914074704E-02
                       5.0000000000E-01  0.0000000000E+00  1.4654701811E-01
                       0.0000000000E+00  5.0000000000E-01  1.4488888547E-01
                       5.0000000000E-01  5.0000000000E-01  1.4586831139E-01
                       0.0000000000E+00  0.0000000000E+00  2.1569477244E-01
                       5.0000000000E-01  5.0000000000E-01  2.1576474069E-01
                       5.0000000000E-01  0.0000000000E+00  2.8571428571E-01
                       0.0000000000E+00  5.0000000000E-01  2.8571428571E-01
                       5.0000000000E-01  5.0000000000E-01  2.8571428571E-01
                       0.0000000000E+00  0.0000000000E+00  3.5573379900E-01
                       5.0000000000E-01  5.0000000000E-01  3.5566383074E-01
                       5.0000000000E-01  0.0000000000E+00  4.2488155333E-01
                       0.0000000000E+00  5.0000000000E-01  4.2653968595E-01
                       5.0000000000E-01  5.0000000000E-01  4.2556026005E-01
                       0.0000000000E+00  0.0000000000E+00  4.9617972717E-01
                       5.0000000000E-01  5.0000000000E-01  4.9551449672E-01
                       5.0000000000E-01  0.0000000000E+00  5.5909683100E-01
                       0.0000000000E+00  5.0000000000E-01  5.7342338750E-01
                       5.0000000000E-01  5.0000000000E-01  5.6525190804E-01
                       0.0000000000E+00  0.0000000000E+00  6.5200213215E-01
                       5.0000000000E-01  5.0000000000E-01  6.3342436149E-01
                       0.0000000000E+00  5.0000000000E-01  6.4065114559E-01
            znucl       56.00000   22.00000    8.00000

================================================================================

 chkinp: Checking input parameters for consistency.

 chkinp: WARNING -
   Chksymbreak=1 . Found potentially symmetry-breaking value of tnons, 
   which is neither a rational fraction in 1/8th nor in 1/12th :
   for the symmetry number    2
   symrel is  -1  0  0  0 -1  0  0  0 -1
   tnons is     0.000000E+00    0.000000E+00   -4.285714E-01
   Please, read the description of the input variable chksymbreak,
   then, if you feel confident, you might switch it to zero, or consult with the forum.

 chkinp: WARNING -
   Chksymbreak=1 . Found potentially symmetry-breaking value of tnons, 
   which is neither a rational fraction in 1/8th nor in 1/12th :
   for the symmetry number    3
   symrel is  -1  0  0  0  1  0  0  0 -1
   tnons is     0.000000E+00    0.000000E+00   -4.285714E-01
   Please, read the description of the input variable chksymbreak,
   then, if you feel confident, you might switch it to zero, or consult with the forum.

 chkinp: WARNING -
   Chksymbreak=1 . Found potentially symmetry-breaking value of tnons, 
   which is neither a rational fraction in 1/8th nor in 1/12th :
   for the symmetry number    6
   symrel is   1  0  0  0  1  0  0  0 -1
   tnons is     0.000000E+00    0.000000E+00   -4.285714E-01
   Please, read the description of the input variable chksymbreak,
   then, if you feel confident, you might switch it to zero, or consult with the forum.

 chkinp: WARNING -
   Chksymbreak=1 . Found potentially symmetry-breaking value of tnons, 
   which is neither a rational fraction in 1/8th nor in 1/12th :
   for the symmetry number    7
   symrel is   1  0  0  0 -1  0  0  0 -1
   tnons is     0.000000E+00    0.000000E+00   -4.285714E-01
   Please, read the description of the input variable chksymbreak,
   then, if you feel confident, you might switch it to zero, or consult with the forum.

================================================================================
== DATASET  1 ==================================================================
-   nproc =   24

 Exchange-correlation functional for the present dataset will be:
  LDA: old Teter (4/91) fit to Ceperley-Alder data - ixc=3

 Real(R)+Recip(G) space primitive vectors, cartesian coordinates (Bohr,Bohr^-1):
 R(1)=  7.5589045  0.0000000  0.0000000  G(1)=  0.1322943  0.0000000  0.0000000
 R(2)=  0.0000000  7.5589045  0.0000000  G(2)=  0.0000000  0.1322943  0.0000000
 R(3)=  0.0000000  0.0000000 52.9123317  G(3)=  0.0000000  0.0000000  0.0188992
 Unit cell volume ucvol=  3.0232539E+03 bohr^3
 Angles (23,13,12)=  9.00000000E+01  9.00000000E+01  9.00000000E+01 degrees
 setup1 : take into account q-point for computing boxcut.

 getcut: wavevector=  0.0000  0.2500  0.0000  ngfft=  30  30 192
         ecut(hartree)=     15.000   => boxcut(ratio)=   2.08164

--- Pseudopotential description ------------------------------------------------
- pspini: atom type   1  psp file is /home/buildbot/ABINIT/cronos_gnu_5.3_paral/trunk_release-8.8/tests/Psps_for_tests/56ba.psp_mod
- pspatm: opening atomic psp file    /home/buildbot/ABINIT/cronos_gnu_5.3_paral/trunk_release-8.8/tests/Psps_for_tests/56ba.psp_mod
- Barium.ion 5s2.5p6.6s0.5d0 rcs=rcp=rcd=1.7 ecut=22/28
- 56.00000  10.00000    940000                znucl, zion, pspdat
    4    3    2    2      2001   0.00000      pspcod,pspxc,lmax,lloc,mmax,r2well
    0   0.000   0.000    2   1.6965489        l,e99.0,e99.9,nproj,rcpsp
   0.00000000   0.00000000   0.00000000   0.00000000     rms, ekb1, ekb2, epsatm
    1   0.000   0.000    2   1.6965489        l,e99.0,e99.9,nproj,rcpsp
   0.00000000   0.00000000   0.00000000   0.00000000     rms, ekb1, ekb2, epsatm
    2   0.000   0.000    0   1.6965489        l,e99.0,e99.9,nproj,rcpsp
   0.00000000   0.00000000   0.00000000   0.00000000     rms, ekb1, ekb2, epsatm
    0.00000000000000    0.00000000000000    0.00000000000000   rchrg,fchrg,qchrg
  pspatm : epsatm=   43.25917021
         --- l  ekb(1:nproj) -->
             0   -9.646692   27.266828
             1   -6.938476   21.148499
 pspatm: atomic psp has been read  and splines computed

- pspini: atom type   2  psp file is /home/buildbot/ABINIT/cronos_gnu_5.3_paral/trunk_release-8.8/tests/Psps_for_tests/22ti.psp_mod
- pspatm: opening atomic psp file    /home/buildbot/ABINIT/cronos_gnu_5.3_paral/trunk_release-8.8/tests/Psps_for_tests/22ti.psp_mod
- Titane.ion 3s2.3p6.4s0.3d2 rcd=1.65, rcs=rc0=1.25, ecut 32/54
- 22.00000  12.00000    940000                znucl, zion, pspdat
    4    3    2    2      2001   0.00000      pspcod,pspxc,lmax,lloc,mmax,r2well
    0   0.000   0.000    2   1.2533577        l,e99.0,e99.9,nproj,rcpsp
   0.00000000   0.00000000   0.00000000   0.00000000     rms, ekb1, ekb2, epsatm
    1   0.000   0.000    2   1.2533577        l,e99.0,e99.9,nproj,rcpsp
   0.00000000   0.00000000   0.00000000   0.00000000     rms, ekb1, ekb2, epsatm
    2   0.000   0.000    0   1.6491622        l,e99.0,e99.9,nproj,rcpsp
   0.00000000   0.00000000   0.00000000   0.00000000     rms, ekb1, ekb2, epsatm
    0.00000000000000    0.00000000000000    0.00000000000000   rchrg,fchrg,qchrg
  pspatm : epsatm=    4.67708954
         --- l  ekb(1:nproj) -->
             0    9.517316   -2.344682
             1    5.011406   -0.741179
 pspatm: atomic psp has been read  and splines computed

- pspini: atom type   3  psp file is /home/buildbot/ABINIT/cronos_gnu_5.3_paral/trunk_release-8.8/tests/Psps_for_tests/8o.psp_mod
- pspatm: opening atomic psp file    /home/buildbot/ABINIT/cronos_gnu_5.3_paral/trunk_release-8.8/tests/Psps_for_tests/8o.psp_mod
- 1.65bohr 35 hartree exncc psp for oxygen with core 19 june 1992
-  8.00000   6.00000    920619                znucl, zion, pspdat
    4    3    1    1      2001   0.00000      pspcod,pspxc,lmax,lloc,mmax,r2well
    0   0.000   0.000    2   1.6491622        l,e99.0,e99.9,nproj,rcpsp
   0.00000000   0.00000000   0.00000000   0.00000000     rms, ekb1, ekb2, epsatm
    1   0.000   0.000    0   1.6491622        l,e99.0,e99.9,nproj,rcpsp
   0.00000000   0.00000000   0.00000000   0.00000000     rms, ekb1, ekb2, epsatm
    1.00000000000000    0.95000909444395    0.44408665956870   rchrg,fchrg,qchrg
  pspatm : epsatm=    1.15255884
         --- l  ekb(1:nproj) -->
             0    7.721978   -1.904542
 pspatm: atomic psp has been read  and splines computed

   5.25531891E+04                                ecore*ucvol(ha*bohr**3)
--------------------------------------------------------------------------------

-inwffil : will read wavefunctions from disk file tdfpt_04_MPI24i_WFK

 ==>  initialize data related to q vector <== 

 The list of irreducible perturbations for this q vector is:
    1)    idir= 3    ipert=   1

================================================================================

--------------------------------------------------------------------------------
 Perturbation wavevector (in red.coord.)   0.000000  0.250000  0.000000
 Perturbation : displacement of atom   1   along direction   3
 Found     2 symmetries that leave the perturbation invariant.
 symkpt : the number of k-points, thanks to the symmetries,
 is reduced to     8 .

--------------------------------------------------------------------------------

-inwffil : will read wavefunctions from disk file tdfpt_04_MPI24i_WFK
--------------------------------------------------------------------------------

-inwffil : will read wavefunctions from disk file tdfpt_04_MPI24i_WFK
 Initialisation of the first-order wave-functions :
  ireadwf=   0

     iter   2DEtotal(Ha)        deltaE(Ha) residm    vres2
-ETOT  1   32451.753338639     -7.833E+04 4.303E+02 1.358E+08
 ETOT  2   3334.9894678509     -2.912E+04 9.290E+01 3.209E+07
 ETOT  3   1432.4137928727     -1.903E+03 1.010E+02 1.735E+07
 ETOT  4   500.64587928117     -9.318E+02 3.457E+01 5.117E+06
 ETOT  5   220.39963555500     -2.802E+02 3.127E+01 3.491E+06
 ETOT  6   82.251024848866     -1.381E+02 1.605E+01 1.691E+06
 ETOT  7   64.773092252796     -1.748E+01 2.464E+01 1.212E+06
 ETOT  8   48.421004909918     -1.635E+01 5.200E+00 8.870E+05
 ETOT  9   34.487066557294     -1.393E+01 4.330E+00 5.218E+05
 ETOT 10   23.861421151928     -1.063E+01 6.071E+00 1.999E+05
 ETOT 11   21.065956671108     -2.795E+00 7.235E+00 9.835E+04
 ETOT 12   17.139078493402     -3.927E+00 8.249E+00 2.858E+04
 ETOT 13   16.215039405242     -9.240E-01 1.151E+01 7.322E+03
 ETOT 14   15.900746823257     -3.143E-01 8.354E+00 3.781E+03
 ETOT 15   15.716945667996     -1.838E-01 1.208E+01 1.214E+03
 ETOT 16   15.656810782352     -6.013E-02 8.811E+00 3.034E+02
 ETOT 17   15.643091211864     -1.372E-02 1.351E+01 1.263E+02
 ETOT 18   15.635102815574     -7.988E-03 1.005E+01 3.415E+01

 scprqt:  WARNING -
  nstep=   18 was not enough SCF cycles to converge;
  maximum residual=  1.005E+01 exceeds tolwfr=  1.000E-22

================================================================================

 ----iterations are completed or convergence reached----

 Mean square residual over all n,k,spin=   1.4051E-02; max=  1.0045E+01

 Thirteen components of 2nd-order total energy (hartree) are
 1,2,3: 0th-order hamiltonian combined with 1st-order wavefunctions
     kin0=   1.31215718E+05 eigvalue=  -3.67292681E+03  local=  -6.70635877E+04
 4,5,6: 1st-order hamiltonian combined with 1st and 0th-order wfs
 loc psp =  -1.17943848E+05  Hartree=   2.51271087E+04     xc=  -5.56950456E+03
 note that "loc psp" includes a xc core correction that could be resolved
 7,8,9: eventually, occupation + non-local contributions
    edocc=   1.45654083E+02     enl0=   3.05805821E+04   enl1=  -1.03581906E+05
 1-9 gives the relaxation energy (to be shifted if some occ is /=2.0)
   erelax=  -1.10762711E+05
 10,11,12 Non-relaxation  contributions : frozen-wavefunctions and Ewald
 fr.local=   5.85215573E+04 fr.nonlo=   5.28707084E+04  Ewald=  -6.22707873E+02
 13,14 Frozen wf xc core corrections (1) and (2)
 frxc 1  =  -6.60781094E+02  frxc 2 =   6.69568860E+02
 Resulting in :
 2DEtotal=    0.1563510282E+02 Ha. Also 2DEtotal=    0.425452784405E+03 eV
    (2DErelax=   -1.1076271056E+05 Ha. 2DEnonrelax=    1.1077834566E+05 Ha)
    (  non-var. 2DEtotal :    1.5468606421E+01 Ha)

================================================================================

 ---- first-order wavefunction calculations are completed ----


 ==> Compute Derivative Database <==
  
  2nd-order matrix (non-cartesian coordinates, masses not included,
   asr not included )
     j1       j2             matrix element
  dir pert dir pert     real part     imaginary part
  
   1    1   2    1         0.0000000000         0.0000000000
   1    1   3    1        -0.0000000000         0.0000000000
   1    1   2    2        -0.0000000000        -0.0000000000
   1    1   3    2        -0.0000000000         0.0000000000
   1    1   2    3         0.0000000000         0.0000000000
   1    1   3    3        -0.0000000000         0.0000000000
   1    1   2    4        -0.0000000000        -0.0000000000
   1    1   3    4         0.0000000000        -0.0000000000
   1    1   2    5         0.0000000000         0.0000000000
   1    1   3    5         0.0000000000        -0.0000000000
   1    1   2    6        -0.0000000000        -0.0000000000
   1    1   3    6        -0.0000000000         0.0000000000
   1    1   2    7        -0.0000000000        -0.0000000000
   1    1   3    7         0.0000000000        -0.0000000000
   1    1   2    8         0.0000000000         0.0000000000
   1    1   3    8         0.0000000000        -0.0000000000
   1    1   2    9        -0.0000000000         0.0000000000
   1    1   3    9         0.0000000000         0.0000000000
   1    1   2   10         0.0000000000         0.0000000000
   1    1   3   10         0.0000000000        -0.0000000000
   1    1   2   11        -0.0000000000        -0.0000000000
   1    1   3   11         0.0000000000        -0.0000000000
   1    1   2   12         0.0000000000         0.0000000000
   1    1   3   12        -0.0000000000        -0.0000000000
   1    1   2   13        -0.0000000000        -0.0000000000
   1    1   3   13         0.0000000000        -0.0000000000
   1    1   2   14        -0.0000000000        -0.0000000000
   1    1   3   14        -0.0000000000         0.0000000000
   1    1   2   15         0.0000000000         0.0000000000
   1    1   3   15         0.0000000000        -0.0000000000
   1    1   2   16        -0.0000000000        -0.0000000000
   1    1   3   16        -0.0000000000         0.0000000000
   1    1   2   17         0.0000000000        -0.0000000000
   1    1   3   17         0.0000000000         0.0000000000
   1    1   2   18        -0.0000000000         0.0000000000
   1    1   3   18        -0.0000000000         0.0000000000
   1    1   2   19         0.0000000000         0.0000000000
   1    1   3   19         0.0000000000         0.0000000000
   1    1   2   20        -0.0000000000         0.0000000000
   1    1   3   20        -0.0000000000         0.0000000000
   1    1   2   21         0.0000000000         0.0000000000
   1    1   3   21        -0.0000000000        -0.0000000000
   1    1   2   22        -0.0000000000         0.0000000000
   1    1   3   22         0.0000000000         0.0000000000
   1    1   2   23         0.0000000000         0.0000000000
   1    1   3   23         0.0000000000        -0.0000000000
   1    1   2   24        -0.0000000000         0.0000000000
   1    1   3   24         0.0000000000         0.0000000000
   1    1   2   25        -0.0000000000         0.0000000000
   1    1   3   25         0.0000000000         0.0000000000
   1    1   2   26        -0.0000000000         0.0000000000
   1    1   3   26        -0.0000000000         0.0000000000
   1    1   2   27         0.0000000000        -0.0000000000
   1    1   3   27         0.0000000000         0.0000000000
   1    1   2   28         0.0000000000        -0.0000000000
   1    1   3   28         0.0000000000         0.0000000000
   1    1   2   29         0.0000000000         0.0000000000
   1    1   3   29        -0.0000000000         0.0000000000
  
   2    1   1    1         0.0000000000         0.0000000000
   2    1   3    1         0.0004305948         2.8568645321
   2    1   1    2        -0.0000000000        -0.0000000000
   2    1   1    3         0.0000000000         0.0000000000
   2    1   1    4        -0.0000000000        -0.0000000000
   2    1   1    5         0.0000000000         0.0000000000
   2    1   1    6        -0.0000000000        -0.0000000000
   2    1   1    7        -0.0000000000        -0.0000000000
   2    1   1    8         0.0000000000         0.0000000000
   2    1   1    9        -0.0000000000         0.0000000000
   2    1   1   10         0.0000000000         0.0000000000
   2    1   1   11        -0.0000000000        -0.0000000000
   2    1   1   12         0.0000000000         0.0000000000
   2    1   1   13        -0.0000000000        -0.0000000000
   2    1   1   14        -0.0000000000        -0.0000000000
   2    1   1   15         0.0000000000         0.0000000000
   2    1   1   16        -0.0000000000        -0.0000000000
   2    1   1   17         0.0000000000        -0.0000000000
   2    1   1   18        -0.0000000000         0.0000000000
   2    1   1   19         0.0000000000         0.0000000000
   2    1   1   20        -0.0000000000         0.0000000000
   2    1   1   21         0.0000000000         0.0000000000
   2    1   1   22        -0.0000000000         0.0000000000
   2    1   1   23         0.0000000000         0.0000000000
   2    1   1   24        -0.0000000000         0.0000000000
   2    1   1   25        -0.0000000000         0.0000000000
   2    1   1   26        -0.0000000000         0.0000000000
   2    1   1   27         0.0000000000        -0.0000000000
   2    1   3   27        -0.0001572825         0.3860338507
   2    1   1   28         0.0000000000        -0.0000000000
   2    1   1   29         0.0000000000         0.0000000000
  
   3    1   1    1        -0.0000000000        -0.0000000000
   3    1   2    1         0.0004305948        -2.8568645321
   3    1   3    1        15.4686064209         0.0000000000
   3    1   1    2         0.0000000000         0.0000000000
   3    1   2    2        -0.3834301159        -0.3838525152
   3    1   3    2        14.1947577505       -14.1947712844
   3    1   1    3         0.0000000000         0.0000000000
   3    1   2    3       -10.0719255523       -10.0713225503
   3    1   3    3       -92.8376222950        92.8380132516
   3    1   1    4         0.0000000000        -0.0000000000
   3    1   2    4         0.0004788937        -1.5274410367
   3    1   3    4       -20.5002877995         0.0004402125
   3    1   1    5        -0.0000000000         0.0000000000
   3    1   2    5        -0.8965862504        -0.8969270730
   3    1   3    5         3.0460233140        -3.0468540772
   3    1   1    6         0.0000000000         0.0000000000
   3    1   2    6         2.8206910579         2.8203753352
   3    1   3    6         6.3255161230        -6.3245023295
   3    1   1    7         0.0000000000        -0.0000000000
   3    1   2    7         0.0001657410         0.4874628766
   3    1   3    7         6.3161965102        -0.0012007791
   3    1   1    8         0.0000000000         0.0000000000
   3    1   2    8        -0.1873571812        -0.1875231292
   3    1   3    8        -0.8737464748         0.8717751634
   3    1   1    9        -0.0000000000        -0.0000000000
   3    1   2    9         0.0000283355        -0.1605619836
   3    1   3    9        -1.1232466486        -0.0009145896
   3    1   1   10         0.0000000000        -0.0000000000
   3    1   2   10        -0.0948051260        -0.0948474738
   3    1   3   10        -0.3615298431         0.3598272204
   3    1   1   11        -0.0000000000         0.0000000000
   3    1   2   11         0.2967782188         0.2965316644
   3    1   3   11         2.9436133163        -2.9447720393
   3    1   1   12        -0.0000000000        -0.0000000000
   3    1   2   12        -0.0000250951         0.1372092434
   3    1   3   12         0.8235192236        -0.0005041093
   3    1   1   13        -0.0000000000         0.0000000000
   3    1   2   13        -0.0115483408        -0.0115434925
   3    1   3   13        -0.4434236186         0.4422039213
   3    1   1   14         0.0000000000         0.0000000000
   3    1   2   14        -0.0000441176        -0.0477549009
   3    1   3   14         0.1722423647        -0.0000677496
   3    1   1   15        -0.0000000000         0.0000000000
   3    1   2   15        -0.0092691426        -0.0092398216
   3    1   3   15         0.1817902340        -0.1822797018
   3    1   1   16         0.0000000000        -0.0000000000
   3    1   2   16         0.0689762844         0.0690693551
   3    1   3   16         0.8832792892        -0.8829044896
   3    1   1   17        -0.0000000000         0.0000000000
   3    1   2   17        -0.0000561785        -0.0950762491
   3    1   3   17         1.2275531468        -0.0002685347
   3    1   1   18        -0.0000000000         0.0000000000
   3    1   2   18        -0.0417475530        -0.0416787184
   3    1   3   18         0.2971547811        -0.2974544206
   3    1   1   19         0.0000000000        -0.0000000000
   3    1   2   19        -0.0000489221        -0.1190212027
   3    1   3   19         0.4911013684        -0.0003189813
   3    1   1   20         0.0000000000        -0.0000000000
   3    1   2   20        -0.0909115280        -0.0907950881
   3    1   3   20         0.2573287514        -0.2578935242
   3    1   1   21        -0.0000000000         0.0000000000
   3    1   2   21        -0.2100566360        -0.2098388425
   3    1   3   21         1.0037601046        -1.0038406764
   3    1   1   22         0.0000000000         0.0000000000
   3    1   2   22        -0.0001297707        -0.3102117435
   3    1   3   22         0.5634450642        -0.0002544376
   3    1   1   23         0.0000000000         0.0000000000
   3    1   2   23        -0.1077639121        -0.1076124562
   3    1   3   23        -0.4559579441         0.4556560903
   3    1   1   24         0.0000000000        -0.0000000000
   3    1   2   24        -0.0000936356         0.0068891174
   3    1   3   24        -0.5646143852        -0.0001051739
   3    1   1   25        -0.0000000000         0.0000000000
   3    1   2   25        -0.0755211510        -0.0753285707
   3    1   3   25        -0.7990193863         0.7988644794
   3    1   1   26         0.0000000000         0.0000000000
   3    1   2   26        -0.3705419464        -0.3702440766
   3    1   3   26         0.8197757731        -0.8197356313
   3    1   1   27         0.0000000000         0.0000000000
   3    1   2   27        -0.0001572825         0.3860338507
   3    1   3   27        -2.6589149197         0.0006230852
   3    1   1   28         0.0000000000        -0.0000000000
   3    1   2   28        -0.0191121004        -0.0189481032
   3    1   3   28        -1.1127270992         1.1128438858
   3    1   1   29        -0.0000000000        -0.0000000000
   3    1   2   29        -0.6865662750        -0.6863055777
   3    1   3   29         1.6320061134        -1.6313538544
  
   1    2   2    1        -0.0000000000         0.0000000000
   1    2   3    1         0.0000000000        -0.0000000000
   1    2   2    2         0.0000000000         0.0000000000
   1    2   3    2        -0.0000000000         0.0000000000
   1    2   2    3        -0.0000000000         0.0000000000
   1    2   3    3         0.0000000000        -0.0000000000
   1    2   2    4        -0.0000000000         0.0000000000
   1    2   3    4        -0.0000000000        -0.0000000000
   1    2   2    5        -0.0000000000        -0.0000000000
   1    2   3    5         0.0000000000         0.0000000000
   1    2   2    6         0.0000000000         0.0000000000
   1    2   3    6         0.0000000000        -0.0000000000
   1    2   2    7        -0.0000000000         0.0000000000
   1    2   3    7        -0.0000000000        -0.0000000000
   1    2   2    8         0.0000000000        -0.0000000000
   1    2   3    8        -0.0000000000        -0.0000000000
   1    2   2    9        -0.0000000000         0.0000000000
   1    2   3    9         0.0000000000         0.0000000000
   1    2   2   10        -0.0000000000         0.0000000000
   1    2   3   10         0.0000000000        -0.0000000000
   1    2   2   11         0.0000000000         0.0000000000
   1    2   3   11        -0.0000000000         0.0000000000
   1    2   2   12        -0.0000000000         0.0000000000
   1    2   3   12         0.0000000000         0.0000000000
   1    2   2   13         0.0000000000         0.0000000000
   1    2   3   13        -0.0000000000         0.0000000000
   1    2   2   14        -0.0000000000         0.0000000000
   1    2   3   14         0.0000000000         0.0000000000
   1    2   2   15        -0.0000000000         0.0000000000
   1    2   3   15         0.0000000000         0.0000000000
   1    2   2   16         0.0000000000         0.0000000000
   1    2   3   16         0.0000000000        -0.0000000000
   1    2   2   17         0.0000000000        -0.0000000000
   1    2   3   17         0.0000000000         0.0000000000
   1    2   2   18         0.0000000000        -0.0000000000
   1    2   3   18         0.0000000000        -0.0000000000
   1    2   2   19         0.0000000000        -0.0000000000
   1    2   3   19         0.0000000000        -0.0000000000
   1    2   2   20        -0.0000000000         0.0000000000
   1    2   3   20        -0.0000000000        -0.0000000000
   1    2   2   21        -0.0000000000        -0.0000000000
   1    2   3   21        -0.0000000000         0.0000000000
   1    2   2   22         0.0000000000        -0.0000000000
   1    2   3   22        -0.0000000000        -0.0000000000
   1    2   2   23        -0.0000000000        -0.0000000000
   1    2   3   23        -0.0000000000        -0.0000000000
   1    2   2   24        -0.0000000000        -0.0000000000
   1    2   3   24        -0.0000000000        -0.0000000000
   1    2   2   25         0.0000000000         0.0000000000
   1    2   3   25         0.0000000000         0.0000000000
   1    2   2   26        -0.0000000000         0.0000000000
   1    2   3   26         0.0000000000        -0.0000000000
   1    2   2   27         0.0000000000        -0.0000000000
   1    2   3   27         0.0000000000         0.0000000000
   1    2   2   28        -0.0000000000        -0.0000000000
   1    2   3   28        -0.0000000000        -0.0000000000
   1    2   2   29         0.0000000000        -0.0000000000
   1    2   3   29         0.0000000000         0.0000000000
  
   2    2   1    1        -0.0000000000         0.0000000000
   2    2   3    1        -0.3834301159         0.3838525152
   2    2   1    2         0.0000000000         0.0000000000
   2    2   1    3        -0.0000000000         0.0000000000
   2    2   1    4        -0.0000000000         0.0000000000
   2    2   1    5        -0.0000000000        -0.0000000000
   2    2   1    6         0.0000000000         0.0000000000
   2    2   1    7        -0.0000000000         0.0000000000
   2    2   1    8         0.0000000000        -0.0000000000
   2    2   1    9        -0.0000000000         0.0000000000
   2    2   1   10        -0.0000000000         0.0000000000
   2    2   1   11         0.0000000000         0.0000000000
   2    2   1   12        -0.0000000000         0.0000000000
   2    2   1   13         0.0000000000         0.0000000000
   2    2   1   14        -0.0000000000         0.0000000000
   2    2   1   15        -0.0000000000         0.0000000000
   2    2   1   16         0.0000000000         0.0000000000
   2    2   1   17         0.0000000000        -0.0000000000
   2    2   1   18         0.0000000000        -0.0000000000
   2    2   1   19         0.0000000000        -0.0000000000
   2    2   1   20        -0.0000000000         0.0000000000
   2    2   1   21        -0.0000000000        -0.0000000000
   2    2   1   22         0.0000000000        -0.0000000000
   2    2   1   23        -0.0000000000        -0.0000000000
   2    2   1   24        -0.0000000000        -0.0000000000
   2    2   1   25         0.0000000000         0.0000000000
   2    2   1   26        -0.0000000000         0.0000000000
   2    2   1   27         0.0000000000        -0.0000000000
   2    2   3   27         0.0189481032        -0.0191121004
   2    2   1   28        -0.0000000000        -0.0000000000
   2    2   1   29         0.0000000000        -0.0000000000
  
   3    2   1    1        -0.0000000000        -0.0000000000
   3    2   3    1        14.1947577505        14.1947712844
   3    2   1    2        -0.0000000000         0.0000000000
   3    2   1    3         0.0000000000        -0.0000000000
   3    2   1    4        -0.0000000000        -0.0000000000
   3    2   1    5         0.0000000000         0.0000000000
   3    2   1    6         0.0000000000        -0.0000000000
   3    2   1    7        -0.0000000000        -0.0000000000
   3    2   1    8        -0.0000000000        -0.0000000000
   3    2   1    9         0.0000000000         0.0000000000
   3    2   1   10         0.0000000000        -0.0000000000
   3    2   1   11        -0.0000000000         0.0000000000
   3    2   1   12         0.0000000000         0.0000000000
   3    2   1   13        -0.0000000000         0.0000000000
   3    2   1   14         0.0000000000         0.0000000000
   3    2   1   15         0.0000000000         0.0000000000
   3    2   1   16         0.0000000000        -0.0000000000
   3    2   1   17         0.0000000000         0.0000000000
   3    2   1   18         0.0000000000        -0.0000000000
   3    2   1   19         0.0000000000        -0.0000000000
   3    2   1   20        -0.0000000000        -0.0000000000
   3    2   1   21        -0.0000000000         0.0000000000
   3    2   1   22        -0.0000000000        -0.0000000000
   3    2   1   23        -0.0000000000        -0.0000000000
   3    2   1   24        -0.0000000000        -0.0000000000
   3    2   1   25         0.0000000000         0.0000000000
   3    2   1   26         0.0000000000        -0.0000000000
   3    2   1   27         0.0000000000         0.0000000000
   3    2   3   27        -1.1128438858        -1.1127270992
   3    2   1   28        -0.0000000000        -0.0000000000
   3    2   1   29         0.0000000000         0.0000000000
  
   1    3   2    1         0.0000000000        -0.0000000000
   1    3   3    1         0.0000000000        -0.0000000000
   1    3   2    2        -0.0000000000        -0.0000000000
   1    3   3    2         0.0000000000         0.0000000000
   1    3   2    3        -0.0000000000         0.0000000000
   1    3   3    3         0.0000000000         0.0000000000
   1    3   2    4         0.0000000000        -0.0000000000
   1    3   3    4         0.0000000000         0.0000000000
   1    3   2    5        -0.0000000000        -0.0000000000
   1    3   3    5         0.0000000000         0.0000000000
   1    3   2    6         0.0000000000        -0.0000000000
   1    3   3    6        -0.0000000000        -0.0000000000
   1    3   2    7        -0.0000000000         0.0000000000
   1    3   3    7        -0.0000000000        -0.0000000000
   1    3   2    8         0.0000000000        -0.0000000000
   1    3   3    8         0.0000000000         0.0000000000
   1    3   2    9         0.0000000000        -0.0000000000
   1    3   3    9         0.0000000000         0.0000000000
   1    3   2   10        -0.0000000000        -0.0000000000
   1    3   3   10         0.0000000000         0.0000000000
   1    3   2   11         0.0000000000         0.0000000000
   1    3   3   11        -0.0000000000        -0.0000000000
   1    3   2   12         0.0000000000        -0.0000000000
   1    3   3   12        -0.0000000000        -0.0000000000
   1    3   2   13        -0.0000000000         0.0000000000
   1    3   3   13         0.0000000000        -0.0000000000
   1    3   2   14         0.0000000000        -0.0000000000
   1    3   3   14        -0.0000000000        -0.0000000000
   1    3   2   15        -0.0000000000        -0.0000000000
   1    3   3   15         0.0000000000         0.0000000000
   1    3   2   16        -0.0000000000         0.0000000000
   1    3   3   16        -0.0000000000        -0.0000000000
   1    3   2   17        -0.0000000000        -0.0000000000
   1    3   3   17         0.0000000000        -0.0000000000
   1    3   2   18        -0.0000000000         0.0000000000
   1    3   3   18         0.0000000000         0.0000000000
   1    3   2   19        -0.0000000000         0.0000000000
   1    3   3   19         0.0000000000         0.0000000000
   1    3   2   20        -0.0000000000         0.0000000000
   1    3   3   20        -0.0000000000        -0.0000000000
   1    3   2   21         0.0000000000         0.0000000000
   1    3   3   21        -0.0000000000        -0.0000000000
   1    3   2   22        -0.0000000000         0.0000000000
   1    3   3   22         0.0000000000         0.0000000000
   1    3   2   23         0.0000000000         0.0000000000
   1    3   3   23         0.0000000000         0.0000000000
   1    3   2   24        -0.0000000000         0.0000000000
   1    3   3   24         0.0000000000         0.0000000000
   1    3   2   25        -0.0000000000         0.0000000000
   1    3   3   25         0.0000000000         0.0000000000
   1    3   2   26        -0.0000000000         0.0000000000
   1    3   3   26        -0.0000000000        -0.0000000000
   1    3   2   27         0.0000000000        -0.0000000000
   1    3   3   27         0.0000000000        -0.0000000000
   1    3   2   28         0.0000000000         0.0000000000
   1    3   3   28         0.0000000000        -0.0000000000
   1    3   2   29        -0.0000000000        -0.0000000000
   1    3   3   29        -0.0000000000         0.0000000000
  
   2    3   1    1         0.0000000000        -0.0000000000
   2    3   3    1       -10.0719255523        10.0713225503
   2    3   1    2        -0.0000000000        -0.0000000000
   2    3   1    3        -0.0000000000         0.0000000000
   2    3   1    4         0.0000000000        -0.0000000000
   2    3   1    5        -0.0000000000        -0.0000000000
   2    3   1    6         0.0000000000        -0.0000000000
   2    3   1    7        -0.0000000000         0.0000000000
   2    3   1    8         0.0000000000        -0.0000000000
   2    3   1    9         0.0000000000        -0.0000000000
   2    3   1   10        -0.0000000000        -0.0000000000
   2    3   1   11         0.0000000000         0.0000000000
   2    3   1   12         0.0000000000        -0.0000000000
   2    3   1   13        -0.0000000000         0.0000000000
   2    3   1   14         0.0000000000        -0.0000000000
   2    3   1   15        -0.0000000000        -0.0000000000
   2    3   1   16        -0.0000000000         0.0000000000
   2    3   1   17        -0.0000000000        -0.0000000000
   2    3   1   18        -0.0000000000         0.0000000000
   2    3   1   19        -0.0000000000         0.0000000000
   2    3   1   20        -0.0000000000         0.0000000000
   2    3   1   21         0.0000000000         0.0000000000
   2    3   1   22        -0.0000000000         0.0000000000
   2    3   1   23         0.0000000000         0.0000000000
   2    3   1   24        -0.0000000000         0.0000000000
   2    3   1   25        -0.0000000000         0.0000000000
   2    3   1   26        -0.0000000000         0.0000000000
   2    3   1   27         0.0000000000        -0.0000000000
   2    3   3   27         0.6863055777        -0.6865662750
   2    3   1   28         0.0000000000         0.0000000000
   2    3   1   29        -0.0000000000        -0.0000000000
  
   3    3   1    1        -0.0000000000        -0.0000000000
   3    3   3    1       -92.8376222950       -92.8380132516
   3    3   1    2         0.0000000000         0.0000000000
   3    3   1    3         0.0000000000         0.0000000000
   3    3   1    4         0.0000000000         0.0000000000
   3    3   1    5         0.0000000000         0.0000000000
   3    3   1    6        -0.0000000000        -0.0000000000
   3    3   1    7        -0.0000000000        -0.0000000000
   3    3   1    8         0.0000000000         0.0000000000
   3    3   1    9         0.0000000000         0.0000000000
   3    3   1   10         0.0000000000         0.0000000000
   3    3   1   11        -0.0000000000        -0.0000000000
   3    3   1   12        -0.0000000000        -0.0000000000
   3    3   1   13         0.0000000000        -0.0000000000
   3    3   1   14        -0.0000000000        -0.0000000000
   3    3   1   15         0.0000000000         0.0000000000
   3    3   1   16        -0.0000000000        -0.0000000000
   3    3   1   17         0.0000000000        -0.0000000000
   3    3   1   18         0.0000000000         0.0000000000
   3    3   1   19         0.0000000000         0.0000000000
   3    3   1   20        -0.0000000000        -0.0000000000
   3    3   1   21        -0.0000000000        -0.0000000000
   3    3   1   22         0.0000000000         0.0000000000
   3    3   1   23         0.0000000000         0.0000000000
   3    3   1   24         0.0000000000         0.0000000000
   3    3   1   25         0.0000000000         0.0000000000
   3    3   1   26        -0.0000000000        -0.0000000000
   3    3   1   27         0.0000000000         0.0000000000
   3    3   3   27         1.6313538544         1.6320061134
   3    3   1   28         0.0000000000        -0.0000000000
   3    3   1   29        -0.0000000000         0.0000000000
  
   1    4   2    1        -0.0000000000         0.0000000000
   1    4   3    1         0.0000000000         0.0000000000
   1    4   2    2        -0.0000000000        -0.0000000000
   1    4   3    2        -0.0000000000         0.0000000000
   1    4   2    3         0.0000000000         0.0000000000
   1    4   3    3         0.0000000000        -0.0000000000
   1    4   2    4        -0.0000000000         0.0000000000
   1    4   3    4         0.0000000000         0.0000000000
   1    4   2    5        -0.0000000000        -0.0000000000
   1    4   3    5         0.0000000000        -0.0000000000
   1    4   2    6         0.0000000000         0.0000000000
   1    4   3    6        -0.0000000000         0.0000000000
   1    4   2    7         0.0000000000         0.0000000000
   1    4   3    7        -0.0000000000        -0.0000000000
   1    4   2    8         0.0000000000         0.0000000000
   1    4   3    8         0.0000000000        -0.0000000000
   1    4   2    9         0.0000000000        -0.0000000000
   1    4   3    9        -0.0000000000         0.0000000000
   1    4   2   10        -0.0000000000        -0.0000000000
   1    4   3   10        -0.0000000000         0.0000000000
   1    4   2   11         0.0000000000         0.0000000000
   1    4   3   11        -0.0000000000         0.0000000000
   1    4   2   12        -0.0000000000        -0.0000000000
   1    4   3   12        -0.0000000000        -0.0000000000
   1    4   2   13        -0.0000000000        -0.0000000000
   1    4   3   13        -0.0000000000         0.0000000000
   1    4   2   14         0.0000000000         0.0000000000
   1    4   3   14        -0.0000000000        -0.0000000000
   1    4   2   15         0.0000000000        -0.0000000000
   1    4   3   15        -0.0000000000         0.0000000000
   1    4   2   16         0.0000000000         0.0000000000
   1    4   3   16        -0.0000000000         0.0000000000
   1    4   2   17        -0.0000000000         0.0000000000
   1    4   3   17        -0.0000000000         0.0000000000
   1    4   2   18         0.0000000000        -0.0000000000
   1    4   3   18         0.0000000000        -0.0000000000
   1    4   2   19         0.0000000000        -0.0000000000
   1    4   3   19         0.0000000000        -0.0000000000
   1    4   2   20         0.0000000000         0.0000000000
   1    4   3   20        -0.0000000000         0.0000000000
   1    4   2   21        -0.0000000000        -0.0000000000
   1    4   3   21         0.0000000000        -0.0000000000
   1    4   2   22         0.0000000000         0.0000000000
   1    4   3   22        -0.0000000000        -0.0000000000
   1    4   2   23        -0.0000000000        -0.0000000000
   1    4   3   23         0.0000000000        -0.0000000000
   1    4   2   24         0.0000000000        -0.0000000000
   1    4   3   24        -0.0000000000         0.0000000000
   1    4   2   25         0.0000000000        -0.0000000000
   1    4   3   25         0.0000000000        -0.0000000000
   1    4   2   26         0.0000000000         0.0000000000
   1    4   3   26         0.0000000000        -0.0000000000
   1    4   2   27         0.0000000000        -0.0000000000
   1    4   3   27         0.0000000000        -0.0000000000
   1    4   2   28        -0.0000000000        -0.0000000000
   1    4   3   28        -0.0000000000         0.0000000000
   1    4   2   29        -0.0000000000         0.0000000000
   1    4   3   29         0.0000000000        -0.0000000000
  
   2    4   1    1        -0.0000000000         0.0000000000
   2    4   3    1         0.0004788937         1.5274410367
   2    4   1    2        -0.0000000000        -0.0000000000
   2    4   1    3         0.0000000000         0.0000000000
   2    4   1    4        -0.0000000000         0.0000000000
   2    4   1    5        -0.0000000000        -0.0000000000
   2    4   1    6         0.0000000000         0.0000000000
   2    4   1    7         0.0000000000         0.0000000000
   2    4   1    8         0.0000000000         0.0000000000
   2    4   1    9         0.0000000000        -0.0000000000
   2    4   1   10        -0.0000000000        -0.0000000000
   2    4   1   11         0.0000000000         0.0000000000
   2    4   1   12        -0.0000000000        -0.0000000000
   2    4   1   13        -0.0000000000        -0.0000000000
   2    4   1   14         0.0000000000         0.0000000000
   2    4   1   15         0.0000000000        -0.0000000000
   2    4   1   16         0.0000000000         0.0000000000
   2    4   1   17        -0.0000000000         0.0000000000
   2    4   1   18         0.0000000000        -0.0000000000
   2    4   1   19         0.0000000000        -0.0000000000
   2    4   1   20         0.0000000000         0.0000000000
   2    4   1   21        -0.0000000000        -0.0000000000
   2    4   1   22         0.0000000000         0.0000000000
   2    4   1   23        -0.0000000000        -0.0000000000
   2    4   1   24         0.0000000000        -0.0000000000
   2    4   1   25         0.0000000000        -0.0000000000
   2    4   1   26         0.0000000000         0.0000000000
   2    4   1   27         0.0000000000        -0.0000000000
   2    4   3   27        -0.0000936356         0.0068891174
   2    4   1   28        -0.0000000000        -0.0000000000
   2    4   1   29        -0.0000000000         0.0000000000
  
   3    4   1    1         0.0000000000         0.0000000000
   3    4   3    1       -20.5002877995        -0.0004402125
   3    4   1    2        -0.0000000000         0.0000000000
   3    4   1    3         0.0000000000        -0.0000000000
   3    4   1    4         0.0000000000         0.0000000000
   3    4   1    5         0.0000000000        -0.0000000000
   3    4   1    6        -0.0000000000         0.0000000000
   3    4   1    7        -0.0000000000        -0.0000000000
   3    4   1    8         0.0000000000        -0.0000000000
   3    4   1    9        -0.0000000000         0.0000000000
   3    4   1   10        -0.0000000000         0.0000000000
   3    4   1   11        -0.0000000000         0.0000000000
   3    4   1   12        -0.0000000000        -0.0000000000
   3    4   1   13        -0.0000000000         0.0000000000
   3    4   1   14        -0.0000000000        -0.0000000000
   3    4   1   15        -0.0000000000         0.0000000000
   3    4   1   16        -0.0000000000         0.0000000000
   3    4   1   17        -0.0000000000         0.0000000000
   3    4   1   18         0.0000000000        -0.0000000000
   3    4   1   19         0.0000000000        -0.0000000000
   3    4   1   20        -0.0000000000         0.0000000000
   3    4   1   21         0.0000000000        -0.0000000000
   3    4   1   22        -0.0000000000        -0.0000000000
   3    4   1   23         0.0000000000        -0.0000000000
   3    4   1   24        -0.0000000000         0.0000000000
   3    4   1   25         0.0000000000        -0.0000000000
   3    4   1   26         0.0000000000        -0.0000000000
   3    4   1   27         0.0000000000        -0.0000000000
   3    4   3   27        -0.5646143852        -0.0001051739
   3    4   1   28        -0.0000000000         0.0000000000
   3    4   1   29         0.0000000000        -0.0000000000
  
   1    5   2    1         0.0000000000        -0.0000000000
   1    5   3    1        -0.0000000000        -0.0000000000
   1    5   2    2        -0.0000000000         0.0000000000
   1    5   3    2         0.0000000000        -0.0000000000
   1    5   2    3        -0.0000000000         0.0000000000
   1    5   3    3         0.0000000000        -0.0000000000
   1    5   2    4        -0.0000000000         0.0000000000
   1    5   3    4         0.0000000000         0.0000000000
   1    5   2    5        -0.0000000000         0.0000000000
   1    5   3    5         0.0000000000         0.0000000000
   1    5   2    6        -0.0000000000        -0.0000000000
   1    5   3    6        -0.0000000000        -0.0000000000
   1    5   2    7        -0.0000000000         0.0000000000
   1    5   3    7         0.0000000000         0.0000000000
   1    5   2    8        -0.0000000000        -0.0000000000
   1    5   3    8        -0.0000000000         0.0000000000
   1    5   2    9         0.0000000000        -0.0000000000
   1    5   3    9        -0.0000000000        -0.0000000000
   1    5   2   10        -0.0000000000        -0.0000000000
   1    5   3   10         0.0000000000        -0.0000000000
   1    5   2   11         0.0000000000        -0.0000000000
   1    5   3   11         0.0000000000        -0.0000000000
   1    5   2   12         0.0000000000        -0.0000000000
   1    5   3   12         0.0000000000         0.0000000000
   1    5   2   13         0.0000000000        -0.0000000000
   1    5   3   13         0.0000000000         0.0000000000
   1    5   2   14         0.0000000000        -0.0000000000
   1    5   3   14        -0.0000000000         0.0000000000
   1    5   2   15        -0.0000000000         0.0000000000
   1    5   3   15        -0.0000000000         0.0000000000
   1    5   2   16         0.0000000000        -0.0000000000
   1    5   3   16         0.0000000000        -0.0000000000
   1    5   2   17        -0.0000000000        -0.0000000000
   1    5   3   17         0.0000000000         0.0000000000
   1    5   2   18        -0.0000000000        -0.0000000000
   1    5   3   18         0.0000000000        -0.0000000000
   1    5   2   19         0.0000000000        -0.0000000000
   1    5   3   19        -0.0000000000        -0.0000000000
   1    5   2   20         0.0000000000         0.0000000000
   1    5   3   20        -0.0000000000         0.0000000000
   1    5   2   21         0.0000000000         0.0000000000
   1    5   3   21        -0.0000000000        -0.0000000000
   1    5   2   22        -0.0000000000         0.0000000000
   1    5   3   22        -0.0000000000         0.0000000000
   1    5   2   23        -0.0000000000         0.0000000000
   1    5   3   23         0.0000000000        -0.0000000000
   1    5   2   24        -0.0000000000         0.0000000000
   1    5   3   24        -0.0000000000         0.0000000000
   1    5   2   25         0.0000000000         0.0000000000
   1    5   3   25        -0.0000000000         0.0000000000
   1    5   2   26         0.0000000000        -0.0000000000
   1    5   3   26        -0.0000000000        -0.0000000000
   1    5   2   27        -0.0000000000        -0.0000000000
   1    5   3   27        -0.0000000000        -0.0000000000
   1    5   2   28         0.0000000000         0.0000000000
   1    5   3   28        -0.0000000000         0.0000000000
   1    5   2   29        -0.0000000000         0.0000000000
   1    5   3   29        -0.0000000000         0.0000000000
  
   2    5   1    1         0.0000000000        -0.0000000000
   2    5   3    1        -0.8965862504         0.8969270730
   2    5   1    2        -0.0000000000         0.0000000000
   2    5   1    3        -0.0000000000         0.0000000000
   2    5   1    4        -0.0000000000         0.0000000000
   2    5   1    5        -0.0000000000         0.0000000000
   2    5   1    6        -0.0000000000        -0.0000000000
   2    5   1    7        -0.0000000000         0.0000000000
   2    5   1    8        -0.0000000000        -0.0000000000
   2    5   1    9         0.0000000000        -0.0000000000
   2    5   1   10        -0.0000000000        -0.0000000000
   2    5   1   11         0.0000000000        -0.0000000000
   2    5   1   12         0.0000000000        -0.0000000000
   2    5   1   13         0.0000000000        -0.0000000000
   2    5   1   14         0.0000000000        -0.0000000000
   2    5   1   15        -0.0000000000         0.0000000000
   2    5   1   16         0.0000000000        -0.0000000000
   2    5   1   17        -0.0000000000        -0.0000000000
   2    5   1   18        -0.0000000000        -0.0000000000
   2    5   1   19         0.0000000000        -0.0000000000
   2    5   1   20         0.0000000000         0.0000000000
   2    5   1   21         0.0000000000         0.0000000000
   2    5   1   22        -0.0000000000         0.0000000000
   2    5   1   23        -0.0000000000         0.0000000000
   2    5   1   24        -0.0000000000         0.0000000000
   2    5   1   25         0.0000000000         0.0000000000
   2    5   1   26         0.0000000000        -0.0000000000
   2    5   1   27        -0.0000000000        -0.0000000000
   2    5   3   27         0.0753285707        -0.0755211510
   2    5   1   28         0.0000000000         0.0000000000
   2    5   1   29        -0.0000000000         0.0000000000
  
   3    5   1    1         0.0000000000         0.0000000000
   3    5   3    1         3.0460233140         3.0468540772
   3    5   1    2         0.0000000000        -0.0000000000
   3    5   1    3         0.0000000000        -0.0000000000
   3    5   1    4         0.0000000000         0.0000000000
   3    5   1    5         0.0000000000         0.0000000000
   3    5   1    6        -0.0000000000        -0.0000000000
   3    5   1    7         0.0000000000         0.0000000000
   3    5   1    8        -0.0000000000         0.0000000000
   3    5   1    9        -0.0000000000        -0.0000000000
   3    5   1   10         0.0000000000        -0.0000000000
   3    5   1   11         0.0000000000        -0.0000000000
   3    5   1   12         0.0000000000         0.0000000000
   3    5   1   13         0.0000000000         0.0000000000
   3    5   1   14        -0.0000000000         0.0000000000
   3    5   1   15        -0.0000000000         0.0000000000
   3    5   1   16         0.0000000000        -0.0000000000
   3    5   1   17         0.0000000000         0.0000000000
   3    5   1   18         0.0000000000        -0.0000000000
   3    5   1   19        -0.0000000000        -0.0000000000
   3    5   1   20        -0.0000000000         0.0000000000
   3    5   1   21        -0.0000000000        -0.0000000000
   3    5   1   22        -0.0000000000         0.0000000000
   3    5   1   23         0.0000000000        -0.0000000000
   3    5   1   24        -0.0000000000         0.0000000000
   3    5   1   25        -0.0000000000         0.0000000000
   3    5   1   26        -0.0000000000        -0.0000000000
   3    5   1   27         0.0000000000         0.0000000000
   3    5   3   27        -0.7988644794        -0.7990193863
   3    5   1   28        -0.0000000000         0.0000000000
   3    5   1   29        -0.0000000000         0.0000000000
  
   1    6   2    1        -0.0000000000         0.0000000000
   1    6   3    1         0.0000000000        -0.0000000000
   1    6   2    2         0.0000000000        -0.0000000000
   1    6   3    2         0.0000000000         0.0000000000
   1    6   2    3         0.0000000000         0.0000000000
   1    6   3    3        -0.0000000000         0.0000000000
   1    6   2    4         0.0000000000        -0.0000000000
   1    6   3    4        -0.0000000000        -0.0000000000
   1    6   2    5        -0.0000000000         0.0000000000
   1    6   3    5        -0.0000000000         0.0000000000
   1    6   2    6        -0.0000000000         0.0000000000
   1    6   3    6         0.0000000000        -0.0000000000
   1    6   2    7         0.0000000000        -0.0000000000
   1    6   3    7         0.0000000000         0.0000000000
   1    6   2    8         0.0000000000         0.0000000000
   1    6   3    8         0.0000000000         0.0000000000
   1    6   2    9        -0.0000000000         0.0000000000
   1    6   3    9        -0.0000000000        -0.0000000000
   1    6   2   10        -0.0000000000        -0.0000000000
   1    6   3   10         0.0000000000         0.0000000000
   1    6   2   11         0.0000000000         0.0000000000
   1    6   3   11         0.0000000000         0.0000000000
   1    6   2   12        -0.0000000000         0.0000000000
   1    6   3   12         0.0000000000         0.0000000000
   1    6   2   13         0.0000000000         0.0000000000
   1    6   3   13         0.0000000000         0.0000000000
   1    6   2   14        -0.0000000000         0.0000000000
   1    6   3   14        -0.0000000000        -0.0000000000
   1    6   2   15        -0.0000000000        -0.0000000000
   1    6   3   15         0.0000000000        -0.0000000000
   1    6   2   16         0.0000000000         0.0000000000
   1    6   3   16         0.0000000000         0.0000000000
   1    6   2   17        -0.0000000000         0.0000000000
   1    6   3   17        -0.0000000000        -0.0000000000
   1    6   2   18         0.0000000000        -0.0000000000
   1    6   3   18         0.0000000000        -0.0000000000
   1    6   2   19         0.0000000000         0.0000000000
   1    6   3   19        -0.0000000000        -0.0000000000
   1    6   2   20        -0.0000000000        -0.0000000000
   1    6   3   20         0.0000000000         0.0000000000
   1    6   2   21         0.0000000000        -0.0000000000
   1    6   3   21         0.0000000000        -0.0000000000
   1    6   2   22        -0.0000000000         0.0000000000
   1    6   3   22        -0.0000000000         0.0000000000
   1    6   2   23         0.0000000000        -0.0000000000
   1    6   3   23         0.0000000000        -0.0000000000
   1    6   2   24         0.0000000000        -0.0000000000
   1    6   3   24         0.0000000000        -0.0000000000
   1    6   2   25         0.0000000000         0.0000000000
   1    6   3   25         0.0000000000         0.0000000000
   1    6   2   26        -0.0000000000         0.0000000000
   1    6   3   26         0.0000000000        -0.0000000000
   1    6   2   27         0.0000000000         0.0000000000
   1    6   3   27        -0.0000000000         0.0000000000
   1    6   2   28        -0.0000000000        -0.0000000000
   1    6   3   28        -0.0000000000        -0.0000000000
   1    6   2   29        -0.0000000000         0.0000000000
   1    6   3   29         0.0000000000         0.0000000000
  
   2    6   1    1        -0.0000000000         0.0000000000
   2    6   3    1         2.8206910579        -2.8203753352
   2    6   1    2         0.0000000000        -0.0000000000
   2    6   1    3         0.0000000000         0.0000000000
   2    6   1    4         0.0000000000        -0.0000000000
   2    6   1    5        -0.0000000000         0.0000000000
   2    6   1    6        -0.0000000000         0.0000000000
   2    6   1    7         0.0000000000        -0.0000000000
   2    6   1    8         0.0000000000         0.0000000000
   2    6   1    9        -0.0000000000         0.0000000000
   2    6   1   10        -0.0000000000        -0.0000000000
   2    6   1   11         0.0000000000         0.0000000000
   2    6   1   12        -0.0000000000         0.0000000000
   2    6   1   13         0.0000000000         0.0000000000
   2    6   1   14        -0.0000000000         0.0000000000
   2    6   1   15        -0.0000000000        -0.0000000000
   2    6   1   16         0.0000000000         0.0000000000
   2    6   1   17        -0.0000000000         0.0000000000
   2    6   1   18         0.0000000000        -0.0000000000
   2    6   1   19         0.0000000000         0.0000000000
   2    6   1   20        -0.0000000000        -0.0000000000
   2    6   1   21         0.0000000000        -0.0000000000
   2    6   1   22        -0.0000000000         0.0000000000
   2    6   1   23         0.0000000000        -0.0000000000
   2    6   1   24         0.0000000000        -0.0000000000
   2    6   1   25         0.0000000000         0.0000000000
   2    6   1   26        -0.0000000000         0.0000000000
   2    6   1   27         0.0000000000         0.0000000000
   2    6   3   27         0.3702440766        -0.3705419464
   2    6   1   28        -0.0000000000        -0.0000000000
   2    6   1   29        -0.0000000000         0.0000000000
  
   3    6   1    1        -0.0000000000        -0.0000000000
   3    6   3    1         6.3255161230         6.3245023295
   3    6   1    2         0.0000000000         0.0000000000
   3    6   1    3        -0.0000000000         0.0000000000
   3    6   1    4        -0.0000000000        -0.0000000000
   3    6   1    5        -0.0000000000         0.0000000000
   3    6   1    6         0.0000000000        -0.0000000000
   3    6   1    7         0.0000000000         0.0000000000
   3    6   1    8         0.0000000000         0.0000000000
   3    6   1    9        -0.0000000000        -0.0000000000
   3    6   1   10         0.0000000000         0.0000000000
   3    6   1   11         0.0000000000         0.0000000000
   3    6   1   12         0.0000000000         0.0000000000
   3    6   1   13         0.0000000000         0.0000000000
   3    6   1   14        -0.0000000000        -0.0000000000
   3    6   1   15         0.0000000000        -0.0000000000
   3    6   1   16         0.0000000000         0.0000000000
   3    6   1   17        -0.0000000000        -0.0000000000
   3    6   1   18         0.0000000000        -0.0000000000
   3    6   1   19        -0.0000000000        -0.0000000000
   3    6   1   20         0.0000000000         0.0000000000
   3    6   1   21         0.0000000000        -0.0000000000
   3    6   1   22        -0.0000000000         0.0000000000
   3    6   1   23         0.0000000000        -0.0000000000
   3    6   1   24         0.0000000000        -0.0000000000
   3    6   1   25         0.0000000000         0.0000000000
   3    6   1   26         0.0000000000        -0.0000000000
   3    6   1   27        -0.0000000000        -0.0000000000
   3    6   3   27         0.8197356313         0.8197757731
   3    6   1   28        -0.0000000000        -0.0000000000
   3    6   1   29         0.0000000000         0.0000000000
  
   1    7   2    1        -0.0000000000         0.0000000000
   1    7   3    1         0.0000000000         0.0000000000
   1    7   2    2        -0.0000000000        -0.0000000000
   1    7   3    2        -0.0000000000         0.0000000000
   1    7   2    3        -0.0000000000        -0.0000000000
   1    7   3    3        -0.0000000000         0.0000000000
   1    7   2    4         0.0000000000        -0.0000000000
   1    7   3    4        -0.0000000000         0.0000000000
   1    7   2    5        -0.0000000000        -0.0000000000
   1    7   3    5         0.0000000000        -0.0000000000
   1    7   2    6         0.0000000000         0.0000000000
   1    7   3    6         0.0000000000        -0.0000000000
   1    7   2    7        -0.0000000000         0.0000000000
   1    7   3    7         0.0000000000         0.0000000000
   1    7   2    8        -0.0000000000        -0.0000000000
   1    7   3    8        -0.0000000000         0.0000000000
   1    7   2    9         0.0000000000        -0.0000000000
   1    7   3    9         0.0000000000        -0.0000000000
   1    7   2   10        -0.0000000000        -0.0000000000
   1    7   3   10         0.0000000000        -0.0000000000
   1    7   2   11        -0.0000000000        -0.0000000000
   1    7   3   11         0.0000000000        -0.0000000000
   1    7   2   12        -0.0000000000        -0.0000000000
   1    7   3   12         0.0000000000        -0.0000000000
   1    7   2   13        -0.0000000000        -0.0000000000
   1    7   3   13         0.0000000000        -0.0000000000
   1    7   2   14        -0.0000000000        -0.0000000000
   1    7   3   14         0.0000000000        -0.0000000000
   1    7   2   15         0.0000000000        -0.0000000000
   1    7   3   15        -0.0000000000         0.0000000000
   1    7   2   16        -0.0000000000        -0.0000000000
   1    7   3   16         0.0000000000        -0.0000000000
   1    7   2   17        -0.0000000000         0.0000000000
   1    7   3   17        -0.0000000000        -0.0000000000
   1    7   2   18         0.0000000000         0.0000000000
   1    7   3   18        -0.0000000000         0.0000000000
   1    7   2   19         0.0000000000        -0.0000000000
   1    7   3   19        -0.0000000000         0.0000000000
   1    7   2   20        -0.0000000000         0.0000000000
   1    7   3   20        -0.0000000000        -0.0000000000
   1    7   2   21         0.0000000000         0.0000000000
   1    7   3   21        -0.0000000000         0.0000000000
   1    7   2   22         0.0000000000        -0.0000000000
   1    7   3   22         0.0000000000         0.0000000000
   1    7   2   23         0.0000000000         0.0000000000
   1    7   3   23        -0.0000000000         0.0000000000
   1    7   2   24        -0.0000000000         0.0000000000
   1    7   3   24        -0.0000000000        -0.0000000000
   1    7   2   25         0.0000000000         0.0000000000
   1    7   3   25         0.0000000000         0.0000000000
   1    7   2   26        -0.0000000000        -0.0000000000
   1    7   3   26         0.0000000000         0.0000000000
   1    7   2   27        -0.0000000000         0.0000000000
   1    7   3   27         0.0000000000         0.0000000000
   1    7   2   28         0.0000000000         0.0000000000
   1    7   3   28         0.0000000000        -0.0000000000
   1    7   2   29        -0.0000000000         0.0000000000
   1    7   3   29         0.0000000000        -0.0000000000
  
   2    7   1    1        -0.0000000000         0.0000000000
   2    7   3    1         0.0001657410        -0.4874628766
   2    7   1    2        -0.0000000000        -0.0000000000
   2    7   1    3        -0.0000000000        -0.0000000000
   2    7   1    4         0.0000000000        -0.0000000000
   2    7   1    5        -0.0000000000        -0.0000000000
   2    7   1    6         0.0000000000         0.0000000000
   2    7   1    7        -0.0000000000         0.0000000000
   2    7   1    8        -0.0000000000        -0.0000000000
   2    7   1    9         0.0000000000        -0.0000000000
   2    7   1   10        -0.0000000000        -0.0000000000
   2    7   1   11        -0.0000000000        -0.0000000000
   2    7   1   12        -0.0000000000        -0.0000000000
   2    7   1   13        -0.0000000000        -0.0000000000
   2    7   1   14        -0.0000000000        -0.0000000000
   2    7   1   15         0.0000000000        -0.0000000000
   2    7   1   16        -0.0000000000        -0.0000000000
   2    7   1   17        -0.0000000000         0.0000000000
   2    7   1   18         0.0000000000         0.0000000000
   2    7   1   19         0.0000000000        -0.0000000000
   2    7   1   20        -0.0000000000         0.0000000000
   2    7   1   21         0.0000000000         0.0000000000
   2    7   1   22         0.0000000000        -0.0000000000
   2    7   1   23         0.0000000000         0.0000000000
   2    7   1   24        -0.0000000000         0.0000000000
   2    7   1   25         0.0000000000         0.0000000000
   2    7   1   26        -0.0000000000        -0.0000000000
   2    7   1   27        -0.0000000000         0.0000000000
   2    7   3   27        -0.0001297707        -0.3102117435
   2    7   1   28         0.0000000000         0.0000000000
   2    7   1   29        -0.0000000000         0.0000000000
  
   3    7   1    1         0.0000000000         0.0000000000
   3    7   3    1         6.3161965102         0.0012007791
   3    7   1    2        -0.0000000000         0.0000000000
   3    7   1    3        -0.0000000000         0.0000000000
   3    7   1    4        -0.0000000000         0.0000000000
   3    7   1    5         0.0000000000        -0.0000000000
   3    7   1    6         0.0000000000        -0.0000000000
   3    7   1    7         0.0000000000         0.0000000000
   3    7   1    8        -0.0000000000         0.0000000000
   3    7   1    9         0.0000000000        -0.0000000000
   3    7   1   10         0.0000000000        -0.0000000000
   3    7   1   11         0.0000000000        -0.0000000000
   3    7   1   12         0.0000000000        -0.0000000000
   3    7   1   13         0.0000000000        -0.0000000000
   3    7   1   14         0.0000000000        -0.0000000000
   3    7   1   15        -0.0000000000         0.0000000000
   3    7   1   16         0.0000000000        -0.0000000000
   3    7   1   17        -0.0000000000        -0.0000000000
   3    7   1   18        -0.0000000000         0.0000000000
   3    7   1   19        -0.0000000000         0.0000000000
   3    7   1   20        -0.0000000000        -0.0000000000
   3    7   1   21        -0.0000000000         0.0000000000
   3    7   1   22         0.0000000000         0.0000000000
   3    7   1   23        -0.0000000000         0.0000000000
   3    7   1   24        -0.0000000000        -0.0000000000
   3    7   1   25         0.0000000000         0.0000000000
   3    7   1   26         0.0000000000         0.0000000000
   3    7   1   27         0.0000000000         0.0000000000
   3    7   3   27         0.5634450642        -0.0002544376
   3    7   1   28         0.0000000000        -0.0000000000
   3    7   1   29         0.0000000000        -0.0000000000
  
   1    8   2    1         0.0000000000        -0.0000000000
   1    8   3    1         0.0000000000        -0.0000000000
   1    8   2    2         0.0000000000         0.0000000000
   1    8   3    2        -0.0000000000         0.0000000000
   1    8   2    3         0.0000000000         0.0000000000
   1    8   3    3         0.0000000000        -0.0000000000
[...]

-<BEGIN_TIMER mpi_nprocs = 24, omp_nthreads = 1, mpi_rank = world>
- cpu_time =        5943.5, wall_time =        5953.9
-
- routine                         cpu     %       wall     %      number of calls Gflops    Speedup Efficacity
-                                                                  (-1=no count)
- projbd                      1994.610  33.6   1999.235  33.6         172785      -1.00        1.00       1.00
- fourwf%(pot)                 953.177  16.0    955.941  16.1         103671      -1.00        1.00       1.00
- nonlop(apply)                880.874  14.8    882.975  14.8          86391      -1.00        1.00       1.00
- dfpt_vtorho:MPI              877.590  14.8    878.254  14.8            432      -1.00        1.00       1.00
- fourwf%(G->r)                279.821   4.7    280.490   4.7          50112      -1.00        1.00       1.00
- nonlop(forces)               201.750   3.4    202.197   3.4         100800      -1.00        1.00       1.00
- dfpt_vtowfk(contrib)         106.010   1.8    106.125   1.8            -24      -1.00        1.00       1.00
- pspini                       100.847   1.7    100.912   1.7             24      -1.00        1.00       1.00
- dfpt_cgwf-O(npw)              71.167   1.2     70.079   1.2            -24      -1.00        1.02       1.02
- fourdp                        47.010   0.8     47.136   0.8           4392      -1.00        1.00       1.00
- dfpt_dyxc1                    39.412   0.7     39.538   0.7             24      -1.00        1.00       1.00
- xc:pot/=fourdp                21.625   0.4     21.692   0.4           5088      -1.00        1.00       1.00
- getghc-other                  16.146   0.3     15.372   0.3            -24      -1.00        1.05       1.05
- mkrho/=                       14.653   0.2     14.673   0.2             48      -1.00        1.00       1.00
- newkpt(excl. rwwf   )         13.508   0.2     13.527   0.2            -24      -1.00        1.00       1.00
- symrhg(no FFT)                12.253   0.2     12.264   0.2            456      -1.00        1.00       1.00
- wfsinp(excl. calls)           11.728   0.2     11.725   0.2             72      -1.00        1.00       1.00
- dfpt_vtorho-kpt loop          10.310   0.2     10.337   0.2            432      -1.00        1.00       1.00
- fourwf%(den)                   7.615   0.1      7.633   0.1           1856      -1.00        1.00       1.00
- dfpt_vtorho (1)                5.956   0.1      5.976   0.1            432      -1.00        1.00       1.00
- invars2                        2.409   0.0      2.411   0.0             24      -1.00        1.00       1.00
- setsym                         1.594   0.0      1.594   0.0             48      -1.00        1.00       1.00
- abinit(2)                      0.620   0.0      0.621   0.0             24      -1.00        1.00       1.00
- kpgsph                         0.163   0.0      0.173   0.0           1288      -1.00        0.94       0.94
- initwf(before rwwf)            0.161   0.0      0.166   0.0             64      -1.00        0.97       0.97
- mkcore                         0.075   0.0      0.068   0.0             48      -1.00        1.10       1.10
- inwffil(excl. calls)           0.061   0.0      0.074   0.0             96      -1.00        0.83       0.83
- dfpt_scfcv  (1)                0.022   0.0      0.020   0.0             24      -1.00        1.10       1.10
- dfpt_vtowfk (1)                0.018   0.0      0.015   0.0            432      -1.00        1.23       1.23
- dfpt_vtowfk (3)                0.013   0.0      0.010   0.0            432      -1.00        1.28       1.28
- others (83)                    0.000   0.0      0.002   0.0             -1      -1.00        0.00       0.00
-<END_TIMER>

- subtotal                    5671.196  95.4   5681.234  95.4                                  1.00       1.00

 Partitioning of abinit
- abinit                      5943.511 100.0   5953.904 100.0             24                   1.00       1.00
 
- indefo+macroin+invars2m        2.419   0.0      2.417   0.0             24                   1.00       1.00
- driver                      5938.603  99.9   5948.992  99.9             24                   1.00       1.00

- subtotal                    5943.511 100.0   5953.904 100.0                                  1.00       1.00

 Partitioning of driver
- driver                      5938.603  99.9   5948.992  99.9             24                   1.00       1.00
 
- respfn                      5938.578  99.9   5948.967  99.9             24                   1.00       1.00

- subtotal                    5938.603  99.9   5948.992  99.9                                  1.00       1.00

 Partitioning of respfn
- respfn                      5938.578  99.9   5948.967  99.9             24                   1.00       1.00
 
- respfn(pspini)               100.853   1.7    100.914   1.7             24                   1.00       1.00
- respfn(inwffil)               15.390   0.3     15.401   0.3             24                   1.00       1.00
- respfn(frozen)               100.760   1.7    100.836   1.7             24                   1.00       1.00
- respfn(dfpt_dyxc1+bef.df      41.300   0.7     41.425   0.7             24                   1.00       1.00
- respfn(after dfpt_loper)       2.387   0.0      2.395   0.0             24                   1.00       1.00
- dfpt_loper                  5674.102  95.5   5684.205  95.5             24                   1.00       1.00

- subtotal                    5934.888  99.9   5945.271  99.9                                  1.00       1.00

 Partitioning of dfpt_looppert
- dfpt_loper                  5674.102  95.5   5684.205  95.5             24                   1.00       1.00
 
- dfpt_loper(inwffil)           14.684   0.2     14.716   0.2             72                   1.00       1.00
- dfpt_scfcv                  5625.644  94.7   5635.703  94.7             24                   1.00       1.00
- dfpt_loper(outwf)             28.794   0.5     28.809   0.5             24                   1.00       1.00
- (other)                        4.909   0.1      4.908   0.1             -1                   1.00       1.00

- subtotal                    5674.102  95.5   5684.205  95.5                                  1.00       1.00

 Partitioning of dfpt_scfcv
- dfpt_scfcv                  5625.644  94.7   5635.703  94.7             24                   1.00       1.00
 
- dfpt_vtorho                 5258.595  88.5   5268.089  88.5            432                   1.00       1.00
- dfpt_rhotov                   20.767   0.3     20.800   0.3            456                   1.00       1.00
- dfpt_scfcv-scprqt              4.062   0.1      4.060   0.1            432                   1.00       1.00
- dfpt_newvtr                   50.000   0.8     50.131   0.8            432                   1.00       1.00
- dfpt_nselt/nstdy/nstpaw      288.710   4.9    289.119   4.9             24                   1.00       1.00

- subtotal                    5622.250  94.6   5632.318  94.6                                  1.00       1.00

 Partitioning of dfpt_vtorho
- dfpt_vtorho                 5258.595  88.5   5268.089  88.5            432                   1.00       1.00
 
- dfpt_vtorho (1)                5.956   0.1      5.976   0.1            432                   1.00       1.00
- dfpt_vtowfk                 4341.180  73.0   4349.907  73.1            432                   1.00       1.00
- dfpt_vtorho-kpt loop          10.310   0.2     10.337   0.2            432                   1.00       1.00
- dfpt_vtorho:MPI              877.590  14.8    878.254  14.8            432                   1.00       1.00
- dfpt_vtorho (4)               23.551   0.4     23.612   0.4            432                   1.00       1.00

- subtotal                    5258.588  88.5   5268.085  88.5                                  1.00       1.00

 Partitioning of dfpt_vtowfk
- dfpt_vtowfk                 4341.180  73.0   4349.907  73.1            432                   1.00       1.00
 
- dfpt_cgwf                   3948.899  66.4   3956.693  66.5          17280                   1.00       1.00
- fourwf%dfpt_accrho%dfpt_     279.821   4.7    280.490   4.7          50112                   1.00       1.00
- corrmetalwf1%dfpt_vtowfk       6.419   0.1      6.574   0.1          17280                   0.98       0.98
- dfpt_vtowfk(contrib)         106.010   1.8    106.125   1.8            -24                   1.00       1.00

- subtotal                    4341.180  73.0   4349.907  73.1                                  1.00       1.00

 Partitioning of dfpt_cgwf
- dfpt_cgwf                   3948.899  66.4   3956.693  66.5          17280                   1.00       1.00
 
- dfpt_cgwf-O(npw)              71.167   1.2     70.079   1.2            -24                   1.02       1.02
- getghc%dfpt_cgwf            1681.083  28.3   1684.760  28.3          86391                   1.00       1.00
- projbd%dfpt_cgwf            1994.610  33.6   1999.235  33.6         172785                   1.00       1.00
- nonlop%dfpt_cgwf !2           32.926   0.6     33.091   0.6          17280                   0.99       0.99
- fourwf%dfpt_cgwf             169.114   2.8    169.528   2.8          17280                   1.00       1.00

- subtotal                    3948.899  66.4   3956.693  66.5                                  1.00       1.00

 Partitioning of getghc
- getghc                      1681.083  28.3   1684.760  28.3          86391                   1.00       1.00
 
- fourwf%getghc                784.063  13.2    786.413  13.2          86391                   1.00       1.00
- nonlop%getghc                880.874  14.8    882.975  14.8          86391                   1.00       1.00
- getghc-other                  16.146   0.3     15.372   0.3            -24                   1.05       1.05

- subtotal                    1681.083  28.3   1684.760  28.3                                  1.00       1.00

 Partitioning of fourwf (upwards partitioning)
- fourwf                      1240.612  20.9   1244.064  20.9         155639                   1.00       1.00
 
- fourwf%getghc                784.063  13.2    786.413  13.2          86391                   1.00       1.00
- fourwf%dfpt_cgwf             169.114   2.8    169.528   2.8          17280                   1.00       1.00
- fourwf%dfpt_accrho%dfpt_     279.821   4.7    280.490   4.7          50112                   1.00       1.00
- fourwf%mkrho2                  7.615   0.1      7.633   0.1           1856                   1.00       1.00

- subtotal                    1240.612  20.9   1244.064  20.9                                  1.00       1.00

 Partitioning of mkrho (upwards partitioning)
- mkrho                         15.905   0.3     15.922   0.3             24                   1.00       1.00
 
- mkrho%respfn                  15.905   0.3     15.922   0.3             24                   1.00       1.00

- subtotal                      15.905   0.3     15.922   0.3                                  1.00       1.00

 Partitioning of inwffil
- inwffil                       30.068   0.5     30.112   0.5             96                   1.00       1.00
 
- inwffil(call wfsinp)          16.466   0.3     16.475   0.3             72                   1.00       1.00
- inwffil(call newkpt)          13.541   0.2     13.564   0.2             96                   1.00       1.00

- subtotal                      30.064   0.5     30.112   0.5                                  1.00       1.00

 Partitioning of wfsinp
- wfsinp                        16.466   0.3     16.474   0.3             72                   1.00       1.00
 
- wfsinp(call  initwf)           4.738   0.1      4.748   0.1             64                   1.00       1.00
- wfsinp:synchro                11.726   0.2     11.723   0.2             72                   1.00       1.00

- subtotal                      16.466   0.3     16.474   0.3                                  1.00       1.00

 Partitioning of initwf
- initwf                         4.738   0.1      4.748   0.1             64                   1.00       1.00
 
- rwwf%initwf(RF)                4.577   0.1      4.580   0.1             64                   1.00       1.00

- subtotal                       4.738   0.1      4.747   0.1                                  1.00       1.00

 Partitioning of newkpt
- newkpt                        13.540   0.2     13.563   0.2             96                   1.00       1.00
 
- newkpt(call wfconv)            5.105   0.1      5.117   0.1             88                   1.00       1.00
- newkpt(after loop   )          8.395   0.1      8.397   0.1             96                   1.00       1.00

- subtotal                      13.508   0.2     13.527   0.2                                  1.00       1.00

 Partitioning of  fourdp (upwards partitioning)
- fourdp                        47.010   0.8     47.136   0.8           4392                   1.00       1.00
 
- fourdp%(other)                47.010   0.8     47.136   0.8           4392                   1.00       1.00

- subtotal                      47.010   0.8     47.136   0.8                                  1.00       1.00
-
-Synchronisation (=leave_test) and MPI calls 
- communic.MPI                 968.739  16.3    969.381  16.3          71647                   1.00       1.00
-
- wfsinp:synchro                11.726   0.2     11.723   0.2             72                   1.00       1.00
- mkrho :MPIrhor                 6.734   0.1      6.741   0.1             24                   1.00       1.00
- subtotal                      18.460   0.3     18.464   0.3                                  1.00       1.00

 Additional information
- timana(1)                      0.004   0.0      0.002   0.0             24                   1.76       1.76
- total timab                    0.000   0.0      0.000   0.0         731446                   0.00       0.00
- fourwf                      1240.612  20.9   1244.064  20.9         155639                   1.00       1.00
- status                         0.000   0.0      0.000   0.0              1                   0.00       0.00
- nonlop(dyfrnl)                42.547   0.7     42.585   0.7           1920                   1.00       1.00
- nonlop(total)               1125.170  18.9   1127.758  18.9         189111                   1.00       1.00
- fourwf%(G->r)                279.821   4.7    280.490   4.7          50112                   1.00       1.00


 Detailed analysis of some time consuming routines 
                                  tcpu    ncalls  tcpu/ncalls    ndata tcpu/ncalls/ndata
                                 (sec)                (msec)              (microsec)
- fourwf%(pot)                 953.177    103671       9.194    345600       0.027
- fourwf%(den)                   7.615      1856       4.103    172800       0.024
- fourdp                        47.010      4392      10.704    172800       0.062
- nonlop(apply)                880.874     86391      10.196    243339       0.042
- nonlop(forces)               201.750    100800       2.001    243339       0.008
- nonlop(forstr)                 0.000         0
- projbd                      1994.610    172785      11.544   1006920       0.011
- xc:pot/=fourdp                21.625      5088       4.250    172800       0.025

================================================================================

 Suggested references for the acknowledgment of ABINIT usage.

 The users of ABINIT have little formal obligations with respect to the ABINIT group
 (those specified in the GNU General Public License, http://www.gnu.org/copyleft/gpl.txt).
 However, it is common practice in the scientific literature,
 to acknowledge the efforts of people that have made the research possible.
 In this spirit, please find below suggested citations of work written by ABINIT developers,
 corresponding to implementations inside of ABINIT that you have used in the present run.
 Note also that it will be of great value to readers of publications presenting these results,
 to read papers enabling them to understand the theoretical formalism and details
 of the ABINIT implementation.
 For information on why they are suggested, see also https://www.abinit.org/about/?text=acknowledgments.
-
- [1] Recent developments in the ABINIT software package.
- Computer Phys. Comm. 205, 106 (2016).
- X.Gonze, F.Jollet, F.Abreu Araujo, D.Adams, B.Amadon, T.Applencourt,
- C.Audouze, J.-M.Beuken, J.Bieder, A.Bokhanchuk, E.Bousquet, F.Bruneval
- D.Caliste, M.Cote, F.Dahm, F.Da Pieve, M.Delaveau, M.Di Gennaro,
- B.Dorado, C.Espejo, G.Geneste, L.Genovese, A.Gerossier, M.Giantomassi,
- Y.Gillet, D.R.Hamann, L.He, G.Jomard, J.Laflamme Janssen, S.Le Roux,
- A.Levitt, A.Lherbier, F.Liu, I.Lukacevic, A.Martin, C.Martins,
- M.J.T.Oliveira, S.Ponce, Y.Pouillon, T.Rangel, G.-M.Rignanese,
- A.H.Romero, B.Rousseau, O.Rubel, A.A.Shukri, M.Stankovski, M.Torrent,
- M.J.Van Setten, B.Van Troeye, M.J.Verstraete, D.Waroquier, J.Wiktor,
- B.Xue, A.Zhou, J.W.Zwanziger.
- Comment : the fourth generic paper describing the ABINIT project.
- Note that a version of this paper, that is not formatted for Computer Phys. Comm. 
- is available at https://www.abinit.org/about/ABINIT16.pdf .
- The licence allows the authors to put it on the Web.
-
- [2] First-principles responses of solids to atomic displacements and homogeneous electric fields:,
- implementation of a conjugate-gradient algorithm. X. Gonze, Phys. Rev. B55, 10337 (1997).
- Comment : Non-vanishing rfphon and/or rfelfd, in the norm-conserving case.
-
- [3] Dynamical matrices, Born effective charges, dielectric permittivity tensors, and ,
- interatomic force constants from density-functional perturbation theory,
- X. Gonze and C. Lee, Phys. Rev. B55, 10355 (1997).
- Comment : Non-vanishing rfphon and/or rfelfd, in the norm-conserving case.
-
- [4] ABINIT : First-principles approach of materials and nanosystem properties.
- Computer Phys. Comm. 180, 2582-2615 (2009).
- X. Gonze, B. Amadon, P.-M. Anglade, J.-M. Beuken, F. Bottin, P. Boulanger, F. Bruneval,
- D. Caliste, R. Caracas, M. Cote, T. Deutsch, L. Genovese, Ph. Ghosez, M. Giantomassi
- S. Goedecker, D.R. Hamann, P. Hermet, F. Jollet, G. Jomard, S. Leroux, M. Mancini, S. Mazevet,
- M.J.T. Oliveira, G. Onida, Y. Pouillon, T. Rangel, G.-M. Rignanese, D. Sangalli, R. Shaltaf,
- M. Torrent, M.J. Verstraete, G. Zerah, J.W. Zwanziger
- Comment : the third generic paper describing the ABINIT project.
- Note that a version of this paper, that is not formatted for Computer Phys. Comm. 
- is available at https://www.abinit.org/about/ABINIT_CPC_v10.pdf .
- The licence allows the authors to put it on the Web.
-
- [5] A brief introduction to the ABINIT software package.
- Z. Kristallogr. 220, 558-562 (2005).
- X. Gonze, G.-M. Rignanese, M. Verstraete, J.-M. Beuken, Y. Pouillon, R. Caracas, F. Jollet,
- M. Torrent, G. Zerah, M. Mikami, Ph. Ghosez, M. Veithen, J.-Y. Raty, V. Olevano, F. Bruneval,
- L. Reining, R. Godby, G. Onida, D.R. Hamann, and D.C. Allan.
- Comment : the second generic paper describing the ABINIT project. Note that this paper
- should be cited especially if you are using the GW part of ABINIT, as several authors
- of this part are not in the list of authors of the first or third paper.
- The .pdf of the latter paper is available at https://www.abinit.org/about/zfk_0505-06_558-562.pdf.
- Note that it should not redistributed (Copyright by Oldenburg Wissenshaftverlag,
- the licence allows the authors to put it on the Web).
-
- Proc.   0 individual time (sec): cpu=        247.7  wall=        248.1

================================================================================

 Calculation completed.
.Delivered   6 WARNINGs and   0 COMMENTs to log file.
+Overall time at end (sec) : cpu=       5943.9  wall=       5954.3
