
.Version 7.10.5 of ABINIT 
.(MPI version, prepared for a x86_64_linux_gnu4.8 computer) 

.Copyright (C) 1998-2020 ABINIT group . 
 ABINIT comes with ABSOLUTELY NO WARRANTY.
 It is free software, and you are welcome to redistribute it
 under certain conditions (GNU General Public License,
 see ~abinit/COPYING or http://www.gnu.org/copyleft/gpl.txt).

 ABINIT is a project of the Universite Catholique de Louvain,
 Corning Inc. and other collaborators, see ~abinit/doc/developers/contributors.txt .
 Please read https://docs.abinit.org/theory/acknowledgments for suggested
 acknowledgments of the ABINIT effort.
 For more information, see https://www.abinit.org .

.Starting date : Tue 22 Sep 2015.
- ( at 14h44 )
  
- input  file    -> tdmft_1.in
- output file    -> tdmft_1.out
- root for input  files -> tdmft_1i
- root for output files -> tdmft_1o


 DATASET    1 : space group P1 (#  1); Bravais aP (primitive triclinic)
================================================================================
 Values of the parameters that define the memory need for DATASET  1.
   intxc =         0  ionmov =         0    iscf =        17 xclevel =         1
  lmnmax =        22   lnmax =         8   mband =        30  mffmem =         1
P  mgfft =        24   mkmem =         2 mpssoang=         3     mpw =       770
  mqgrid =      3001   natom =         5    nfft =     13824    nkpt =        56
  nloalg =         4  nspden =         1 nspinor =         1  nsppol =         1
    nsym =         1  n1xccc =         1  ntypat =         3  occopt =         3
Pmy_natom=         1
 PAW method is used; the additional fine FFT grid is defined by:
   mgfftf=        30    nfftf =     27000
================================================================================
P This job should need less than                      16.222 Mbytes of memory.
  Rough estimation (10% accuracy) of disk space for files :
_ WF disk file :     19.741 Mbytes ; DEN or POT disk file :      0.208 Mbytes.
================================================================================


 DATASET    2 : space group P1 (#  1); Bravais aP (primitive triclinic)
================================================================================
 Values of the parameters that define the memory need for DATASET  2.
   intxc =         0  ionmov =         0    iscf =        -2 xclevel =         1
  lmnmax =        22   lnmax =         8   mband =        30  mffmem =         1
P  mgfft =        24   mkmem =         3 mpssoang=         3     mpw =       780
  mqgrid =      3001   natom =         5    nfft =     13824    nkpt =        87
  nloalg =         4  nspden =         1 nspinor =         1  nsppol =         1
    nsym =         1  n1xccc =         1  ntypat =         3  occopt =         3
Pmy_natom=         1
 PAW method is used; the additional fine FFT grid is defined by:
   mgfftf=        30    nfftf =     27000
================================================================================
P This job should need less than                      15.463 Mbytes of memory.
  Rough estimation (10% accuracy) of disk space for files :
_ WF disk file :     31.066 Mbytes ; DEN or POT disk file :      0.208 Mbytes.
================================================================================

--------------------------------------------------------------------------------
------------- Echo of variables that govern the present computation ------------
--------------------------------------------------------------------------------
-
- outvars: echo of selected default values                                      
-   accesswff0 =  0 , fftalg0 =112 , wfoptalg0 = 10
-
- outvars: echo of global parameters not present in the input file              
-  max_nthreads =    1
-
 -outvars: echo values of preprocessed input variables --------
            acell      7.2605000000E+00  7.2605000000E+00  7.2605000000E+00 Bohr
              amu      5.09415000E+01  8.76200000E+01  1.59994000E+01
             ecut      1.20000000E+01 Hartree
-          fftalg         112
           getden1         -1
           getden2          1
           iatsph2       1    2    3    4    5
             iscf1         17
             iscf2         -2
           istwfk1       0    0    0    0    0    0    0    0    0    0
                         0    0    0    0    0    0    0    0    0    0
                         0    0    0    0    0    0    0    0    0    0
                         1    0    0    0    0    0    0    0    0    0
                         1    0    0    1    0    0    0    0    0    0
           istwfk2       0    0    0    0    0    0    0    0    0    0
                         0    0    0    0    0    0    0    0    1    0
                         0    0    0    0    0    0    0    0    0    0
                         0    0    0    0    0    0    0    0    1    0
                         0    0    0    0    0    0    0    0    0    0
                       outvar_i_n : Printing only first  50 k-points.
              ixc           7
           jdtset        1    2
              kpt1    -1.66666667E-01 -3.33333333E-01  0.00000000E+00
                      -3.33333333E-01 -1.66666667E-01  0.00000000E+00
                      -1.66666667E-01 -1.66666667E-01  1.66666667E-01
                      -1.66666667E-01  3.33333333E-01  0.00000000E+00
                      -3.33333333E-01  5.00000000E-01  0.00000000E+00
                      -1.66666667E-01  5.00000000E-01  1.66666667E-01
                       5.00000000E-01 -3.33333333E-01  0.00000000E+00
                      -3.33333333E-01 -3.33333333E-01  1.66666667E-01
                      -1.66666667E-01 -3.33333333E-01  3.33333333E-01
                       3.33333333E-01 -1.66666667E-01  0.00000000E+00
                       5.00000000E-01 -1.66666667E-01  1.66666667E-01
                      -3.33333333E-01 -1.66666667E-01  3.33333333E-01
                      -1.66666667E-01 -1.66666667E-01  5.00000000E-01
                      -1.66666667E-01  0.00000000E+00  0.00000000E+00
                      -1.66666667E-01  1.66666667E-01  1.66666667E-01
                      -3.33333333E-01  3.33333333E-01  1.66666667E-01
                      -1.66666667E-01  3.33333333E-01  3.33333333E-01
                       5.00000000E-01  5.00000000E-01  1.66666667E-01
                      -3.33333333E-01  5.00000000E-01  3.33333333E-01
                      -1.66666667E-01  5.00000000E-01  5.00000000E-01
                       3.33333333E-01 -3.33333333E-01  1.66666667E-01
                       5.00000000E-01 -3.33333333E-01  3.33333333E-01
                      -3.33333333E-01 -3.33333333E-01  5.00000000E-01
                      -1.66666667E-01 -3.33333333E-01 -3.33333333E-01
                       0.00000000E+00 -1.66666667E-01  0.00000000E+00
                       1.66666667E-01 -1.66666667E-01  1.66666667E-01
                       3.33333333E-01 -1.66666667E-01  3.33333333E-01
                       5.00000000E-01 -1.66666667E-01  5.00000000E-01
                      -3.33333333E-01 -1.66666667E-01 -3.33333333E-01
                      -1.66666667E-01 -1.66666667E-01 -1.66666667E-01
                       5.00000000E-01  0.00000000E+00  0.00000000E+00
                      -3.33333333E-01  0.00000000E+00  1.66666667E-01
                      -1.66666667E-01  0.00000000E+00  3.33333333E-01
                       5.00000000E-01  1.66666667E-01  1.66666667E-01
                      -3.33333333E-01  1.66666667E-01  3.33333333E-01
                      -1.66666667E-01  1.66666667E-01  5.00000000E-01
                       3.33333333E-01  3.33333333E-01  1.66666667E-01
                       5.00000000E-01  3.33333333E-01  3.33333333E-01
                      -3.33333333E-01  3.33333333E-01  5.00000000E-01
                      -1.66666667E-01  3.33333333E-01 -3.33333333E-01
                       0.00000000E+00  5.00000000E-01  0.00000000E+00
                       1.66666667E-01  5.00000000E-01  1.66666667E-01
                       3.33333333E-01  5.00000000E-01  3.33333333E-01
                       5.00000000E-01  5.00000000E-01  5.00000000E-01
                       0.00000000E+00 -3.33333333E-01  1.66666667E-01
                       0.00000000E+00 -1.66666667E-01  3.33333333E-01
                       3.33333333E-01  0.00000000E+00  1.66666667E-01
                       5.00000000E-01  0.00000000E+00  3.33333333E-01
                      -3.33333333E-01  0.00000000E+00  5.00000000E-01
                      -1.66666667E-01  0.00000000E+00 -3.33333333E-01
              kpt2     2.50000000E-01  2.50000000E-01  2.50000000E-01
                       2.36111111E-01  2.36111111E-01  2.36111111E-01
                       2.22222222E-01  2.22222222E-01  2.22222222E-01
                       2.08333333E-01  2.08333333E-01  2.08333333E-01
                       1.94444444E-01  1.94444444E-01  1.94444444E-01
                       1.80555556E-01  1.80555556E-01  1.80555556E-01
                       1.66666667E-01  1.66666667E-01  1.66666667E-01
                       1.52777778E-01  1.52777778E-01  1.52777778E-01
                       1.38888889E-01  1.38888889E-01  1.38888889E-01
                       1.25000000E-01  1.25000000E-01  1.25000000E-01
                       1.11111111E-01  1.11111111E-01  1.11111111E-01
                       9.72222222E-02  9.72222222E-02  9.72222222E-02
                       8.33333333E-02  8.33333333E-02  8.33333333E-02
                       6.94444444E-02  6.94444444E-02  6.94444444E-02
                       5.55555556E-02  5.55555556E-02  5.55555556E-02
                       4.16666667E-02  4.16666667E-02  4.16666667E-02
                       2.77777778E-02  2.77777778E-02  2.77777778E-02
                       1.38888889E-02  1.38888889E-02  1.38888889E-02
                       0.00000000E+00  0.00000000E+00  0.00000000E+00
                       2.50000000E-02  0.00000000E+00  0.00000000E+00
                       5.00000000E-02  0.00000000E+00  0.00000000E+00
                       7.50000000E-02  0.00000000E+00  0.00000000E+00
                       1.00000000E-01  0.00000000E+00  0.00000000E+00
                       1.25000000E-01  0.00000000E+00  0.00000000E+00
                       1.50000000E-01  0.00000000E+00  0.00000000E+00
                       1.75000000E-01  0.00000000E+00  0.00000000E+00
                       2.00000000E-01  0.00000000E+00  0.00000000E+00
                       2.25000000E-01  0.00000000E+00  0.00000000E+00
                       2.50000000E-01  0.00000000E+00  0.00000000E+00
                       2.75000000E-01  0.00000000E+00  0.00000000E+00
                       3.00000000E-01  0.00000000E+00  0.00000000E+00
                       3.25000000E-01  0.00000000E+00  0.00000000E+00
                       3.50000000E-01  0.00000000E+00  0.00000000E+00
                       3.75000000E-01  0.00000000E+00  0.00000000E+00
                       4.00000000E-01  0.00000000E+00  0.00000000E+00
                       4.25000000E-01  0.00000000E+00  0.00000000E+00
                       4.50000000E-01  0.00000000E+00  0.00000000E+00
                       4.75000000E-01  0.00000000E+00  0.00000000E+00
                       5.00000000E-01  0.00000000E+00  0.00000000E+00
                       5.00000000E-01  2.50000000E-02  0.00000000E+00
                       5.00000000E-01  5.00000000E-02  0.00000000E+00
                       5.00000000E-01  7.50000000E-02  0.00000000E+00
                       5.00000000E-01  1.00000000E-01  0.00000000E+00
                       5.00000000E-01  1.25000000E-01  0.00000000E+00
                       5.00000000E-01  1.50000000E-01  0.00000000E+00
                       5.00000000E-01  1.75000000E-01  0.00000000E+00
                       5.00000000E-01  2.00000000E-01  0.00000000E+00
                       5.00000000E-01  2.25000000E-01  0.00000000E+00
                       5.00000000E-01  2.50000000E-01  0.00000000E+00
                       5.00000000E-01  2.75000000E-01  0.00000000E+00
                       outvar_i_n : Printing only first  50 k-points.
           kptopt1          1
           kptopt2         -4
         kptrlatt        3   -3    3     -3    3    3     -3   -3    3
          kptrlen1     3.77266647E+01
          kptrlen2     3.00000000E+01
          kssform1          1
          kssform2          3
P           mkmem1          2
P           mkmem2          3
            natom           5
           natsph2       5
            nband1         30
            nband2         30
         nbandkss1          0
         nbandkss2          2
           nbdbuf1          0
           nbdbuf2          2
           ndtset           2
            ngfft          24      24      24
          ngfftdg          30      30      30
             nkpt1         56
             nkpt2         87
            nline           3
           nnsclo           3
            nstep          40
             nsym           1
           ntypat           3
              occ      2.000000  2.000000  2.000000  2.000000  2.000000  2.000000
                       2.000000  2.000000  2.000000  2.000000  2.000000  2.000000
                       2.000000  2.000000  2.000000  2.000000  2.000000  2.000000
                       2.000000  2.000000  1.000000  0.000000  0.000000  0.000000
                       0.000000  0.000000  0.000000  0.000000  0.000000  0.000000
                       2.000000  2.000000  2.000000  2.000000  2.000000  2.000000
                       2.000000  2.000000  2.000000  2.000000  2.000000  2.000000
                       2.000000  2.000000  2.000000  2.000000  2.000000  2.000000
                       2.000000  2.000000  1.000000  0.000000  0.000000  0.000000
                       0.000000  0.000000  0.000000  0.000000  0.000000  0.000000
                       2.000000  2.000000  2.000000  2.000000  2.000000  2.000000
                       2.000000  2.000000  2.000000  2.000000  2.000000  2.000000
                       2.000000  2.000000  2.000000  2.000000  2.000000  2.000000
                       2.000000  2.000000  1.000000  0.000000  0.000000  0.000000
                       0.000000  0.000000  0.000000  0.000000  0.000000  0.000000
                       2.000000  2.000000  2.000000  2.000000  2.000000  2.000000
                       2.000000  2.000000  2.000000  2.000000  2.000000  2.000000
                       2.000000  2.000000  2.000000  2.000000  2.000000  2.000000
                       2.000000  2.000000  1.000000  0.000000  0.000000  0.000000
                       0.000000  0.000000  0.000000  0.000000  0.000000  0.000000
                       2.000000  2.000000  2.000000  2.000000  2.000000  2.000000
                       2.000000  2.000000  2.000000  2.000000  2.000000  2.000000
                       2.000000  2.000000  2.000000  2.000000  2.000000  2.000000
                       2.000000  2.000000  1.000000  0.000000  0.000000  0.000000
                       0.000000  0.000000  0.000000  0.000000  0.000000  0.000000
                       2.000000  2.000000  2.000000  2.000000  2.000000  2.000000
                       2.000000  2.000000  2.000000  2.000000  2.000000  2.000000
                       2.000000  2.000000  2.000000  2.000000  2.000000  2.000000
                       2.000000  2.000000  1.000000  0.000000  0.000000  0.000000
                       0.000000  0.000000  0.000000  0.000000  0.000000  0.000000
                       2.000000  2.000000  2.000000  2.000000  2.000000  2.000000
                       2.000000  2.000000  2.000000  2.000000  2.000000  2.000000
                       2.000000  2.000000  2.000000  2.000000  2.000000  2.000000
                       2.000000  2.000000  1.000000  0.000000  0.000000  0.000000
                       0.000000  0.000000  0.000000  0.000000  0.000000  0.000000
                       2.000000  2.000000  2.000000  2.000000  2.000000  2.000000
                       2.000000  2.000000  2.000000  2.000000  2.000000  2.000000
                       2.000000  2.000000  2.000000  2.000000  2.000000  2.000000
                       2.000000  2.000000  1.000000  0.000000  0.000000  0.000000
                       0.000000  0.000000  0.000000  0.000000  0.000000  0.000000
                       2.000000  2.000000  2.000000  2.000000  2.000000  2.000000
                       2.000000  2.000000  2.000000  2.000000  2.000000  2.000000
                       2.000000  2.000000  2.000000  2.000000  2.000000  2.000000
                       2.000000  2.000000  1.000000  0.000000  0.000000  0.000000
                       0.000000  0.000000  0.000000  0.000000  0.000000  0.000000
                       2.000000  2.000000  2.000000  2.000000  2.000000  2.000000
                       2.000000  2.000000  2.000000  2.000000  2.000000  2.000000
                       2.000000  2.000000  2.000000  2.000000  2.000000  2.000000
                       2.000000  2.000000  1.000000  0.000000  0.000000  0.000000
                       0.000000  0.000000  0.000000  0.000000  0.000000  0.000000
                       2.000000  2.000000  2.000000  2.000000  2.000000  2.000000
                       2.000000  2.000000  2.000000  2.000000  2.000000  2.000000
                       2.000000  2.000000  2.000000  2.000000  2.000000  2.000000
                       2.000000  2.000000  1.000000  0.000000  0.000000  0.000000
                       0.000000  0.000000  0.000000  0.000000  0.000000  0.000000
                       2.000000  2.000000  2.000000  2.000000  2.000000  2.000000
                       2.000000  2.000000  2.000000  2.000000  2.000000  2.000000
                       2.000000  2.000000  2.000000  2.000000  2.000000  2.000000
                       2.000000  2.000000  1.000000  0.000000  0.000000  0.000000
                       0.000000  0.000000  0.000000  0.000000  0.000000  0.000000
                       2.000000  2.000000  2.000000  2.000000  2.000000  2.000000
                       2.000000  2.000000  2.000000  2.000000  2.000000  2.000000
                       2.000000  2.000000  2.000000  2.000000  2.000000  2.000000
                       2.000000  2.000000  1.000000  0.000000  0.000000  0.000000
                       0.000000  0.000000  0.000000  0.000000  0.000000  0.000000
                       2.000000  2.000000  2.000000  2.000000  2.000000  2.000000
                       2.000000  2.000000  2.000000  2.000000  2.000000  2.000000
                       2.000000  2.000000  2.000000  2.000000  2.000000  2.000000
                       2.000000  2.000000  1.000000  0.000000  0.000000  0.000000
                       0.000000  0.000000  0.000000  0.000000  0.000000  0.000000
                       2.000000  2.000000  2.000000  2.000000  2.000000  2.000000
                       2.000000  2.000000  2.000000  2.000000  2.000000  2.000000
                       2.000000  2.000000  2.000000  2.000000  2.000000  2.000000
                       2.000000  2.000000  1.000000  0.000000  0.000000  0.000000
                       0.000000  0.000000  0.000000  0.000000  0.000000  0.000000
                       2.000000  2.000000  2.000000  2.000000  2.000000  2.000000
                       2.000000  2.000000  2.000000  2.000000  2.000000  2.000000
                       2.000000  2.000000  2.000000  2.000000  2.000000  2.000000
                       2.000000  2.000000  1.000000  0.000000  0.000000  0.000000
                       0.000000  0.000000  0.000000  0.000000  0.000000  0.000000
                       2.000000  2.000000  2.000000  2.000000  2.000000  2.000000
                       2.000000  2.000000  2.000000  2.000000  2.000000  2.000000
                       2.000000  2.000000  2.000000  2.000000  2.000000  2.000000
                       2.000000  2.000000  1.000000  0.000000  0.000000  0.000000
                       0.000000  0.000000  0.000000  0.000000  0.000000  0.000000
                       2.000000  2.000000  2.000000  2.000000  2.000000  2.000000
                       2.000000  2.000000  2.000000  2.000000  2.000000  2.000000
                       2.000000  2.000000  2.000000  2.000000  2.000000  2.000000
                       2.000000  2.000000  1.000000  0.000000  0.000000  0.000000
                       0.000000  0.000000  0.000000  0.000000  0.000000  0.000000
                       2.000000  2.000000  2.000000  2.000000  2.000000  2.000000
                       2.000000  2.000000  2.000000  2.000000  2.000000  2.000000
                       2.000000  2.000000  2.000000  2.000000  2.000000  2.000000
                       2.000000  2.000000  1.000000  0.000000  0.000000  0.000000
                       0.000000  0.000000  0.000000  0.000000  0.000000  0.000000
                       2.000000  2.000000  2.000000  2.000000  2.000000  2.000000
                       2.000000  2.000000  2.000000  2.000000  2.000000  2.000000
                       2.000000  2.000000  2.000000  2.000000  2.000000  2.000000
                       2.000000  2.000000  1.000000  0.000000  0.000000  0.000000
                       0.000000  0.000000  0.000000  0.000000  0.000000  0.000000
                       2.000000  2.000000  2.000000  2.000000  2.000000  2.000000
                       2.000000  2.000000  2.000000  2.000000  2.000000  2.000000
                       2.000000  2.000000  2.000000  2.000000  2.000000  2.000000
                       2.000000  2.000000  1.000000  0.000000  0.000000  0.000000
                       0.000000  0.000000  0.000000  0.000000  0.000000  0.000000
                       2.000000  2.000000  2.000000  2.000000  2.000000  2.000000
                       2.000000  2.000000  2.000000  2.000000  2.000000  2.000000
                       2.000000  2.000000  2.000000  2.000000  2.000000  2.000000
                       2.000000  2.000000  1.000000  0.000000  0.000000  0.000000
                       0.000000  0.000000  0.000000  0.000000  0.000000  0.000000
                       2.000000  2.000000  2.000000  2.000000  2.000000  2.000000
                       2.000000  2.000000  2.000000  2.000000  2.000000  2.000000
                       2.000000  2.000000  2.000000  2.000000  2.000000  2.000000
                       2.000000  2.000000  1.000000  0.000000  0.000000  0.000000
                       0.000000  0.000000  0.000000  0.000000  0.000000  0.000000
                       2.000000  2.000000  2.000000  2.000000  2.000000  2.000000
                       2.000000  2.000000  2.000000  2.000000  2.000000  2.000000
                       2.000000  2.000000  2.000000  2.000000  2.000000  2.000000
                       2.000000  2.000000  1.000000  0.000000  0.000000  0.000000
                       0.000000  0.000000  0.000000  0.000000  0.000000  0.000000
                       2.000000  2.000000  2.000000  2.000000  2.000000  2.000000
                       2.000000  2.000000  2.000000  2.000000  2.000000  2.000000
                       2.000000  2.000000  2.000000  2.000000  2.000000  2.000000
                       2.000000  2.000000  1.000000  0.000000  0.000000  0.000000
                       0.000000  0.000000  0.000000  0.000000  0.000000  0.000000
                       2.000000  2.000000  2.000000  2.000000  2.000000  2.000000
                       2.000000  2.000000  2.000000  2.000000  2.000000  2.000000
                       2.000000  2.000000  2.000000  2.000000  2.000000  2.000000
                       2.000000  2.000000  1.000000  0.000000  0.000000  0.000000
                       0.000000  0.000000  0.000000  0.000000  0.000000  0.000000
                       2.000000  2.000000  2.000000  2.000000  2.000000  2.000000
                       2.000000  2.000000  2.000000  2.000000  2.000000  2.000000
                       2.000000  2.000000  2.000000  2.000000  2.000000  2.000000
                       2.000000  2.000000  1.000000  0.000000  0.000000  0.000000
                       0.000000  0.000000  0.000000  0.000000  0.000000  0.000000
                       2.000000  2.000000  2.000000  2.000000  2.000000  2.000000
                       2.000000  2.000000  2.000000  2.000000  2.000000  2.000000
                       2.000000  2.000000  2.000000  2.000000  2.000000  2.000000
                       2.000000  2.000000  1.000000  0.000000  0.000000  0.000000
                       0.000000  0.000000  0.000000  0.000000  0.000000  0.000000
                       2.000000  2.000000  2.000000  2.000000  2.000000  2.000000
                       2.000000  2.000000  2.000000  2.000000  2.000000  2.000000
                       2.000000  2.000000  2.000000  2.000000  2.000000  2.000000
                       2.000000  2.000000  1.000000  0.000000  0.000000  0.000000
                       0.000000  0.000000  0.000000  0.000000  0.000000  0.000000
                       2.000000  2.000000  2.000000  2.000000  2.000000  2.000000
                       2.000000  2.000000  2.000000  2.000000  2.000000  2.000000
                       2.000000  2.000000  2.000000  2.000000  2.000000  2.000000
                       2.000000  2.000000  1.000000  0.000000  0.000000  0.000000
                       0.000000  0.000000  0.000000  0.000000  0.000000  0.000000
                       2.000000  2.000000  2.000000  2.000000  2.000000  2.000000
                       2.000000  2.000000  2.000000  2.000000  2.000000  2.000000
                       2.000000  2.000000  2.000000  2.000000  2.000000  2.000000
                       2.000000  2.000000  1.000000  0.000000  0.000000  0.000000
                       0.000000  0.000000  0.000000  0.000000  0.000000  0.000000
                       2.000000  2.000000  2.000000  2.000000  2.000000  2.000000
                       2.000000  2.000000  2.000000  2.000000  2.000000  2.000000
                       2.000000  2.000000  2.000000  2.000000  2.000000  2.000000
                       2.000000  2.000000  1.000000  0.000000  0.000000  0.000000
                       0.000000  0.000000  0.000000  0.000000  0.000000  0.000000
                       2.000000  2.000000  2.000000  2.000000  2.000000  2.000000
                       2.000000  2.000000  2.000000  2.000000  2.000000  2.000000
                       2.000000  2.000000  2.000000  2.000000  2.000000  2.000000
                       2.000000  2.000000  1.000000  0.000000  0.000000  0.000000
                       0.000000  0.000000  0.000000  0.000000  0.000000  0.000000
                       2.000000  2.000000  2.000000  2.000000  2.000000  2.000000
                       2.000000  2.000000  2.000000  2.000000  2.000000  2.000000
                       2.000000  2.000000  2.000000  2.000000  2.000000  2.000000
                       2.000000  2.000000  1.000000  0.000000  0.000000  0.000000
                       0.000000  0.000000  0.000000  0.000000  0.000000  0.000000
                       2.000000  2.000000  2.000000  2.000000  2.000000  2.000000
                       2.000000  2.000000  2.000000  2.000000  2.000000  2.000000
                       2.000000  2.000000  2.000000  2.000000  2.000000  2.000000
                       2.000000  2.000000  1.000000  0.000000  0.000000  0.000000
                       0.000000  0.000000  0.000000  0.000000  0.000000  0.000000
                       2.000000  2.000000  2.000000  2.000000  2.000000  2.000000
                       2.000000  2.000000  2.000000  2.000000  2.000000  2.000000
                       2.000000  2.000000  2.000000  2.000000  2.000000  2.000000
                       2.000000  2.000000  1.000000  0.000000  0.000000  0.000000
                       0.000000  0.000000  0.000000  0.000000  0.000000  0.000000
                       2.000000  2.000000  2.000000  2.000000  2.000000  2.000000
                       2.000000  2.000000  2.000000  2.000000  2.000000  2.000000
                       2.000000  2.000000  2.000000  2.000000  2.000000  2.000000
                       2.000000  2.000000  1.000000  0.000000  0.000000  0.000000
                       0.000000  0.000000  0.000000  0.000000  0.000000  0.000000
                       2.000000  2.000000  2.000000  2.000000  2.000000  2.000000
                       2.000000  2.000000  2.000000  2.000000  2.000000  2.000000
                       2.000000  2.000000  2.000000  2.000000  2.000000  2.000000
                       2.000000  2.000000  1.000000  0.000000  0.000000  0.000000
                       0.000000  0.000000  0.000000  0.000000  0.000000  0.000000
                       2.000000  2.000000  2.000000  2.000000  2.000000  2.000000
                       2.000000  2.000000  2.000000  2.000000  2.000000  2.000000
                       2.000000  2.000000  2.000000  2.000000  2.000000  2.000000
                       2.000000  2.000000  1.000000  0.000000  0.000000  0.000000
                       0.000000  0.000000  0.000000  0.000000  0.000000  0.000000
                       2.000000  2.000000  2.000000  2.000000  2.000000  2.000000
                       2.000000  2.000000  2.000000  2.000000  2.000000  2.000000
                       2.000000  2.000000  2.000000  2.000000  2.000000  2.000000
                       2.000000  2.000000  1.000000  0.000000  0.000000  0.000000
                       0.000000  0.000000  0.000000  0.000000  0.000000  0.000000
                       2.000000  2.000000  2.000000  2.000000  2.000000  2.000000
                       2.000000  2.000000  2.000000  2.000000  2.000000  2.000000
                       2.000000  2.000000  2.000000  2.000000  2.000000  2.000000
                       2.000000  2.000000  1.000000  0.000000  0.000000  0.000000
                       0.000000  0.000000  0.000000  0.000000  0.000000  0.000000
                       2.000000  2.000000  2.000000  2.000000  2.000000  2.000000
                       2.000000  2.000000  2.000000  2.000000  2.000000  2.000000
                       2.000000  2.000000  2.000000  2.000000  2.000000  2.000000
                       2.000000  2.000000  1.000000  0.000000  0.000000  0.000000
                       0.000000  0.000000  0.000000  0.000000  0.000000  0.000000
                       2.000000  2.000000  2.000000  2.000000  2.000000  2.000000
                       2.000000  2.000000  2.000000  2.000000  2.000000  2.000000
                       2.000000  2.000000  2.000000  2.000000  2.000000  2.000000
                       2.000000  2.000000  1.000000  0.000000  0.000000  0.000000
                       0.000000  0.000000  0.000000  0.000000  0.000000  0.000000
                       2.000000  2.000000  2.000000  2.000000  2.000000  2.000000
                       2.000000  2.000000  2.000000  2.000000  2.000000  2.000000
                       2.000000  2.000000  2.000000  2.000000  2.000000  2.000000
                       2.000000  2.000000  1.000000  0.000000  0.000000  0.000000
                       0.000000  0.000000  0.000000  0.000000  0.000000  0.000000
                       2.000000  2.000000  2.000000  2.000000  2.000000  2.000000
                       2.000000  2.000000  2.000000  2.000000  2.000000  2.000000
                       2.000000  2.000000  2.000000  2.000000  2.000000  2.000000
                       2.000000  2.000000  1.000000  0.000000  0.000000  0.000000
                       0.000000  0.000000  0.000000  0.000000  0.000000  0.000000
                       2.000000  2.000000  2.000000  2.000000  2.000000  2.000000
                       2.000000  2.000000  2.000000  2.000000  2.000000  2.000000
                       2.000000  2.000000  2.000000  2.000000  2.000000  2.000000
                       2.000000  2.000000  1.000000  0.000000  0.000000  0.000000
                       0.000000  0.000000  0.000000  0.000000  0.000000  0.000000
                       2.000000  2.000000  2.000000  2.000000  2.000000  2.000000
                       2.000000  2.000000  2.000000  2.000000  2.000000  2.000000
                       2.000000  2.000000  2.000000  2.000000  2.000000  2.000000
                       2.000000  2.000000  1.000000  0.000000  0.000000  0.000000
                       0.000000  0.000000  0.000000  0.000000  0.000000  0.000000
                       2.000000  2.000000  2.000000  2.000000  2.000000  2.000000
                       2.000000  2.000000  2.000000  2.000000  2.000000  2.000000
                       2.000000  2.000000  2.000000  2.000000  2.000000  2.000000
                       2.000000  2.000000  1.000000  0.000000  0.000000  0.000000
                       0.000000  0.000000  0.000000  0.000000  0.000000  0.000000
                       2.000000  2.000000  2.000000  2.000000  2.000000  2.000000
                       2.000000  2.000000  2.000000  2.000000  2.000000  2.000000
                       2.000000  2.000000  2.000000  2.000000  2.000000  2.000000
                       2.000000  2.000000  1.000000  0.000000  0.000000  0.000000
                       0.000000  0.000000  0.000000  0.000000  0.000000  0.000000
                       2.000000  2.000000  2.000000  2.000000  2.000000  2.000000
                       2.000000  2.000000  2.000000  2.000000  2.000000  2.000000
                       2.000000  2.000000  2.000000  2.000000  2.000000  2.000000
                       2.000000  2.000000  1.000000  0.000000  0.000000  0.000000
                       0.000000  0.000000  0.000000  0.000000  0.000000  0.000000
                       prtocc : prtvol=0, do not print more k-points.
           occopt           3
        pawecutdg      2.00000000E+01 Hartree
        pawfatbnd1          0
        pawfatbnd2          1
        pawprtvol           3
           shiftk      5.00000000E-01  5.00000000E-01  5.00000000E-01
          spgroup           1
           tolwfr      1.00000000E-15
           tsmear      3.80017850E-03 Hartree
            typat      1  2  3  3  3
           useylm           1
              wtk1       0.01852    0.01852    0.01852    0.01852    0.01852    0.01852
                         0.01852    0.01852    0.01852    0.01852    0.01852    0.01852
                         0.01852    0.01852    0.01852    0.01852    0.01852    0.01852
                         0.01852    0.01852    0.01852    0.01852    0.01852    0.01852
                         0.01852    0.01852    0.01852    0.01852    0.01852    0.01852
                         0.00926    0.01852    0.01852    0.01852    0.01852    0.01852
                         0.01852    0.01852    0.01852    0.01852    0.00926    0.01852
                         0.01852    0.00926    0.01852    0.01852    0.01852    0.01852
                         0.01852    0.01852
              wtk2       1.00000    1.00000    1.00000    1.00000    1.00000    1.00000
                         1.00000    1.00000    1.00000    1.00000    1.00000    1.00000
                         1.00000    1.00000    1.00000    1.00000    1.00000    1.00000
                         1.00000    1.00000    1.00000    1.00000    1.00000    1.00000
                         1.00000    1.00000    1.00000    1.00000    1.00000    1.00000
                         1.00000    1.00000    1.00000    1.00000    1.00000    1.00000
                         1.00000    1.00000    1.00000    1.00000    1.00000    1.00000
                         1.00000    1.00000    1.00000    1.00000    1.00000    1.00000
                         1.00000    1.00000
                       outvars : Printing only first  50 k-points.
           xangst      0.0000000000E+00  0.0000000000E+00  0.0000000000E+00
                       1.9210455615E+00  1.9210455615E+00  1.9210455615E+00
                       1.9210455615E+00  0.0000000000E+00  0.0000000000E+00
                       0.0000000000E+00  1.9210455615E+00  0.0000000000E+00
                       0.0000000000E+00  0.0000000000E+00  1.9210455615E+00
            xcart      0.0000000000E+00  0.0000000000E+00  0.0000000000E+00
                       3.6302500000E+00  3.6302500000E+00  3.6302500000E+00
                       3.6302500000E+00  0.0000000000E+00  0.0000000000E+00
                       0.0000000000E+00  3.6302500000E+00  0.0000000000E+00
                       0.0000000000E+00  0.0000000000E+00  3.6302500000E+00
             xred      0.0000000000E+00  0.0000000000E+00  0.0000000000E+00
                       5.0000000000E-01  5.0000000000E-01  5.0000000000E-01
                       5.0000000000E-01  0.0000000000E+00  0.0000000000E+00
                       0.0000000000E+00  5.0000000000E-01  0.0000000000E+00
                       0.0000000000E+00  0.0000000000E+00  5.0000000000E-01
            znucl       23.00000   38.00000    8.00000

================================================================================

 chkinp: Checking input parameters for consistency, jdtset=   1.

 chkinp: Checking input parameters for consistency, jdtset=   2.

================================================================================
== DATASET  1 ==================================================================
-   nproc =   32   -> not optimal: autoparal keyword recommended in input file

 Exchange-correlation functional for the present dataset will be:
  LDA: Perdew-Wang 92 LSD fit to Ceperley-Alder data - ixc=7
 Citation for XC functional:
  J.P.Perdew and Y.Wang, PRB 45, 13244 (1992)

 Real(R)+Recip(G) space primitive vectors, cartesian coordinates (Bohr,Bohr^-1):
 R(1)=  7.2605000  0.0000000  0.0000000  G(1)=  0.1377316  0.0000000  0.0000000
 R(2)=  0.0000000  7.2605000  0.0000000  G(2)=  0.0000000  0.1377316  0.0000000
 R(3)=  0.0000000  0.0000000  7.2605000  G(3)=  0.0000000  0.0000000  0.1377316
 Unit cell volume ucvol=  3.8273624E+02 bohr^3
 Angles (23,13,12)=  9.00000000E+01  9.00000000E+01  9.00000000E+01 degrees

 Coarse grid specifications (used for wave-functions):

 getcut: wavevector=  0.0000  0.0000  0.0000  ngfft=  24  24  24
         ecut(hartree)=     12.000   => boxcut(ratio)=   2.11977

 Fine grid specifications (used for densities):

 getcut: wavevector=  0.0000  0.0000  0.0000  ngfft=  30  30  30
         ecut(hartree)=     20.000   => boxcut(ratio)=   2.05246

--- Pseudopotential description ------------------------------------------------
- pspini: atom type   1  psp file is ../../Psps_for_tests/23v.paw
- pspatm: opening atomic psp file    ../../Psps_for_tests/23v.paw
- Paw atomic data for element V - Generated by AtomPAW + AtomPAW2Abinit v3.2.0
- 23.00000  13.00000  20070917                znucl, zion, pspdat
    7    7    2    0      1505   0.00000      pspcod,pspxc,lmax,lloc,mmax,r2well
 Pseudopotential format is: paw3
 basis_size (lnmax)=  8 (lmn_size= 22), orbitals=   0   0   0   1   1   1   2   2
 Spheres core radius: rc_sph= 2.35000000
 3 radial meshes are used:
  - mesh 1: r(i)=AA*[exp(BB*(i-1))-1], size=1505 , AA= 0.26380E-03 BB= 0.60673E-02
  - mesh 2: r(i)=AA*[exp(BB*(i-1))-1], size=1500 , AA= 0.26380E-03 BB= 0.60673E-02
  - mesh 3: r(i)=AA*[exp(BB*(i-1))-1], size=1738 , AA= 0.26380E-03 BB= 0.60673E-02
 Shapefunction is SIN type: shapef(r)=[sin(pi*r/rshp)/(pi*r/rshp)]**2
 Radius for shape functions =  2.00701120
 Radial grid used for partial waves is grid 1
 Radial grid used for projectors is grid  2
 Radial grid used for (t)core density is grid 1
 Radial grid used for Vloc is grid 3
 Compensation charge density is taken into account in XC energy/potential
 pspatm: atomic psp has been read  and splines computed

- pspini: atom type   2  psp file is ../../Psps_for_tests/38sr.paw
- pspatm: opening atomic psp file    ../../Psps_for_tests/38sr.paw
- Paw atomic data for element Sr - Generated by AtomPAW + AtomPAW2Abinit v3.2.0
- 38.00000  10.00000  20070917                znucl, zion, pspdat
    7    7    2    0      1068   0.00000      pspcod,pspxc,lmax,lloc,mmax,r2well
 Pseudopotential format is: paw3
 basis_size (lnmax)=  6 (lmn_size= 18), orbitals=   0   0   1   1   2   2
 Spheres core radius: rc_sph= 1.92519986
 4 radial meshes are used:
  - mesh 1: r(i)=AA*[exp(BB*(i-1))-1], size=1068 , AA= 0.22443E-03 BB= 0.85283E-02
  - mesh 2: r(i)=AA*[exp(BB*(i-1))-1], size=1063 , AA= 0.22443E-03 BB= 0.85283E-02
  - mesh 3: r(i)=AA*[exp(BB*(i-1))-1], size=1134 , AA= 0.22443E-03 BB= 0.85283E-02
  - mesh 4: r(i)=AA*[exp(BB*(i-1))-1], size=1256 , AA= 0.22443E-03 BB= 0.85283E-02
 Shapefunction is SIN type: shapef(r)=[sin(pi*r/rshp)/(pi*r/rshp)]**2
 Radius for shape functions =  1.81361893
 Radial grid used for partial waves is grid 1
 Radial grid used for projectors is grid  2
 Radial grid used for (t)core density is grid 3
 Radial grid used for Vloc is grid 4
 Compensation charge density is taken into account in XC energy/potential
 pspatm: atomic psp has been read  and splines computed

- pspini: atom type   3  psp file is ../../Psps_for_tests/8o.paw
- pspatm: opening atomic psp file    ../../Psps_for_tests/8o.paw
- Paw atomic data for element O - Generated by AtomPAW (N. Holzwarth)
-  8.00000   6.00000  20040423                znucl, zion, pspdat
    7    7    1    0       350   0.00000      pspcod,pspxc,lmax,lloc,mmax,r2well
 Pseudopotential format is: paw2
 basis_size (lnmax)=  4 (lmn_size=  8), orbitals=   0   0   1   1
 Spheres core radius: rc_sph= 1.41000000
 2 radial meshes are used:
  - mesh 1: r(i)=AA*exp(BB*(i-2)), size= 350 , AA= 0.72362E-05 BB= 0.35000E-01
  - mesh 2: r(i)=step*(i-1), size= 566 , step= 0.25000E-02
 Shapefunction is SIN type: shapef(r)=[sin(pi*r/rshp)/(pi*r/rshp)]**2
 Radius for shape functions = sphere core radius
 Radial grid used for partial waves is grid 1
 Radial grid used for projectors is grid  2
 Radial grid used for (t)core density is grid 1
 Radial grid used for Vloc is grid 1
 Compensation charge density is taken into account in XC energy/potential
 pspatm: atomic psp has been read  and splines computed

   2.50191820E+03                                ecore*ucvol(ha*bohr**3)
--------------------------------------------------------------------------------

P newkpt: treating     30 bands with npw=     758 for ikpt=   1 by node    0
P newkpt: treating     30 bands with npw=     758 for ikpt=   2 by node    0
P newkpt: treating     30 bands with npw=     748 for ikpt=   3 by node    1
P newkpt: treating     30 bands with npw=     758 for ikpt=   4 by node    1
P newkpt: treating     30 bands with npw=     770 for ikpt=   5 by node    2
P newkpt: treating     30 bands with npw=     768 for ikpt=   6 by node    2
P newkpt: treating     30 bands with npw=     770 for ikpt=   7 by node    3
P newkpt: treating     30 bands with npw=     756 for ikpt=   8 by node    3
P newkpt: treating     30 bands with npw=     756 for ikpt=   9 by node    4
P newkpt: treating     30 bands with npw=     758 for ikpt=  10 by node    4
P newkpt: treating     30 bands with npw=     768 for ikpt=  11 by node    5
P newkpt: treating     30 bands with npw=     756 for ikpt=  12 by node    5
P newkpt: treating     30 bands with npw=     768 for ikpt=  13 by node    6
P newkpt: treating     30 bands with npw=     759 for ikpt=  14 by node    6
P newkpt: treating     30 bands with npw=     748 for ikpt=  15 by node    7
P newkpt: treating     30 bands with npw=     756 for ikpt=  16 by node    7
P newkpt: treating     30 bands with npw=     756 for ikpt=  17 by node    8
P newkpt: treating     30 bands with npw=     760 for ikpt=  18 by node    8
P newkpt: treating     30 bands with npw=     748 for ikpt=  19 by node    9
P newkpt: treating     30 bands with npw=     760 for ikpt=  20 by node    9
P newkpt: treating     30 bands with npw=     756 for ikpt=  21 by node   10
P newkpt: treating     30 bands with npw=     748 for ikpt=  22 by node   10
P newkpt: treating     30 bands with npw=     748 for ikpt=  23 by node   11
P newkpt: treating     30 bands with npw=     756 for ikpt=  24 by node   11
P newkpt: treating     30 bands with npw=     759 for ikpt=  25 by node   12
P newkpt: treating     30 bands with npw=     748 for ikpt=  26 by node   12
P newkpt: treating     30 bands with npw=     756 for ikpt=  27 by node   13
P newkpt: treating     30 bands with npw=     760 for ikpt=  28 by node   13
P newkpt: treating     30 bands with npw=     756 for ikpt=  29 by node   14
P newkpt: treating     30 bands with npw=     748 for ikpt=  30 by node   14
P newkpt: treating     30 bands with npw=     756 for ikpt=  31 by node   15
P newkpt: treating     30 bands with npw=     758 for ikpt=  32 by node   15
P newkpt: treating     30 bands with npw=     758 for ikpt=  33 by node   16
P newkpt: treating     30 bands with npw=     768 for ikpt=  34 by node   16
P newkpt: treating     30 bands with npw=     756 for ikpt=  35 by node   17
P newkpt: treating     30 bands with npw=     768 for ikpt=  36 by node   17
P newkpt: treating     30 bands with npw=     756 for ikpt=  37 by node   18
P newkpt: treating     30 bands with npw=     748 for ikpt=  38 by node   18
P newkpt: treating     30 bands with npw=     748 for ikpt=  39 by node   19
P newkpt: treating     30 bands with npw=     756 for ikpt=  40 by node   19
P newkpt: treating     30 bands with npw=     756 for ikpt=  41 by node   20
P newkpt: treating     30 bands with npw=     768 for ikpt=  42 by node   20
P newkpt: treating     30 bands with npw=     748 for ikpt=  43 by node   21
P newkpt: treating     30 bands with npw=     720 for ikpt=  44 by node   21
P newkpt: treating     30 bands with npw=     758 for ikpt=  45 by node   22
P newkpt: treating     30 bands with npw=     758 for ikpt=  46 by node   22
P newkpt: treating     30 bands with npw=     758 for ikpt=  47 by node   23
P newkpt: treating     30 bands with npw=     770 for ikpt=  48 by node   23
P newkpt: treating     30 bands with npw=     770 for ikpt=  49 by node   24
P newkpt: treating     30 bands with npw=     758 for ikpt=  50 by node   24
 newkpt: prtvol=0 or 1, do not print more k-points.

_setup2: Arith. and geom. avg. npw (full set) are     757.907     757.867

================================================================================

     iter   Etot(hartree)      deltaE(h)  residm     nres2
 ETOT  1  -150.99289541586    -1.510E+02 2.056E+00 4.625E+01
 ETOT  2  -151.92344177892    -9.305E-01 1.272E-01 4.242E+01
 ETOT  3  -151.54915260391     3.743E-01 1.934E-02 3.601E+00
 ETOT  4  -151.53700979677     1.214E-02 1.358E-02 1.450E+00
 ETOT  5  -151.51932283122     1.769E-02 1.177E-02 4.364E-01
 ETOT  6  -151.51720263342     2.120E-03 5.244E-03 5.614E-02
 ETOT  7  -151.51710763289     9.500E-05 2.729E-03 1.194E-02
 ETOT  8  -151.51701751113     9.012E-05 1.053E-03 2.655E-05
 ETOT  9  -151.51701772495    -2.138E-07 8.794E-04 1.130E-05
 ETOT 10  -151.51701776552    -4.057E-08 7.555E-04 5.627E-07
 ETOT 11  -151.51701776442     1.099E-09 9.782E-04 8.804E-09
 ETOT 12  -151.51701776450    -8.242E-11 6.495E-04 1.729E-09
 ETOT 13  -151.51701776449     9.976E-12 9.237E-04 3.763E-10
 ETOT 14  -151.51701776449     1.023E-12 4.907E-04 1.308E-11
 ETOT 15  -151.51701776449     6.537E-13 7.463E-04 3.559E-12
 ETOT 16  -151.51701776449     3.126E-13 3.326E-04 1.613E-13
 ETOT 17  -151.51701776449    -6.253E-13 5.304E-04 1.819E-14
 ETOT 18  -151.51701776449    -1.705E-13 2.100E-04 2.432E-15
 ETOT 19  -151.51701776449     2.842E-13 3.434E-04 3.906E-16
 ETOT 20  -151.51701776449    -3.411E-13 1.308E-04 6.083E-17
 ETOT 21  -151.51701776449     3.979E-13 2.088E-04 5.967E-18
 ETOT 22  -151.51701776449    -2.558E-13 8.643E-05 2.534E-19
 ETOT 23  -151.51701776449     1.990E-13 1.221E-04 3.544E-20
 ETOT 24  -151.51701776449    -1.137E-13 5.577E-05 3.950E-21
 ETOT 25  -151.51701776449     5.684E-13 6.970E-05 2.660E-21
 ETOT 26  -151.51701776449    -4.263E-13 3.545E-05 4.887E-21
 ETOT 27  -151.51701776449     4.263E-13 3.924E-05 2.412E-20
 ETOT 28  -151.51701776449    -7.390E-13 2.232E-05 5.783E-21
 ETOT 29  -151.51701776449     1.137E-13 2.191E-05 2.145E-21
 ETOT 30  -151.51701776449     5.684E-14 1.397E-05 4.484E-21
 ETOT 31  -151.51701776449     0.000E+00 1.217E-05 2.557E-21
 ETOT 32  -151.51701776449     3.695E-13 8.715E-06 3.063E-21
 ETOT 33  -151.51701776449     0.000E+00 7.374E-06 4.027E-21
 ETOT 34  -151.51701776449     0.000E+00 5.423E-06 1.747E-21
 ETOT 35  -151.51701776449    -3.411E-13 4.586E-06 4.904E-21
 ETOT 36  -151.51701776449    -1.137E-13 3.369E-06 4.857E-22
 ETOT 37  -151.51701776449     1.137E-13 2.849E-06 3.545E-22
 ETOT 38  -151.51701776449     2.842E-14 2.091E-06 2.685E-23
 ETOT 39  -151.51701776449    -8.527E-14 1.768E-06 7.745E-23
 ETOT 40  -151.51701776449     0.000E+00 1.297E-06 3.347E-23

 Cartesian components of stress tensor (hartree/bohr^3)
  sigma(1 1)=  3.53349509E-03  sigma(3 2)= -3.12420130E-12
  sigma(2 2)=  3.53349487E-03  sigma(3 1)= -4.16161223E-12
  sigma(3 3)=  3.53349496E-03  sigma(2 1)= -3.55841129E-13


 scprqt:  WARNING -
  nstep=   40 was not enough SCF cycles to converge;
  maximum residual=  1.297E-06 exceeds tolwfr=  1.000E-15


 PAW TEST:
 ==== Compensation charge inside spheres ============
 The following values must be close to each other ...
 Compensation charge over spherical meshes =      5.654650167307600
 Compensation charge over fine fft grid    =      5.654706032303346

 ==== Results concerning PAW augmentation regions ====

 Total pseudopotential strength Dij (hartree):
 Atom #  1
  -1.47708   0.31427  -1.68919   0.00000   0.00000   0.00000   0.00000   0.00000   0.00000   0.00000   0.00000   0.00000 ...
   0.31427   0.16814  -1.52003   0.00000   0.00000   0.00000   0.00000   0.00000   0.00000   0.00000   0.00000   0.00000 ...
  -1.68919  -1.52003  15.94263   0.00000   0.00000   0.00000   0.00000   0.00000   0.00000   0.00000   0.00000   0.00000 ...
   0.00000   0.00000   0.00000  -1.07512   0.00000   0.00000   0.07649   0.00000   0.00000   0.07224   0.00000   0.00000 ...
   0.00000   0.00000   0.00000   0.00000  -1.07512   0.00000   0.00000   0.07649   0.00000   0.00000   0.07224   0.00000 ...
   0.00000   0.00000   0.00000   0.00000   0.00000  -1.07512   0.00000   0.00000   0.07649   0.00000   0.00000   0.07224 ...
   0.00000   0.00000   0.00000   0.07649   0.00000   0.00000   0.03922   0.00000   0.00000  -0.16598   0.00000   0.00000 ...
   0.00000   0.00000   0.00000   0.00000   0.07649   0.00000   0.00000   0.03922   0.00000   0.00000  -0.16598   0.00000 ...
   0.00000   0.00000   0.00000   0.00000   0.00000   0.07649   0.00000   0.00000   0.03922   0.00000   0.00000  -0.16598 ...
   0.00000   0.00000   0.00000   0.07224   0.00000   0.00000  -0.16598   0.00000   0.00000   2.29433   0.00000   0.00000 ...
   0.00000   0.00000   0.00000   0.00000   0.07224   0.00000   0.00000  -0.16598   0.00000   0.00000   2.29433   0.00000 ...
   0.00000   0.00000   0.00000   0.00000   0.00000   0.07224   0.00000   0.00000  -0.16598   0.00000   0.00000   2.29433 ...
   ...  only 12  components have been written...
 Atom #  5
   0.04183   0.09121   0.00000   0.00000   0.00000   0.00000   0.00000   0.00000
   0.09121   0.00943   0.00000   0.00000   0.00000   0.00000   0.00000   0.00000
   0.00000   0.00000  -0.70897   0.00000   0.00000   0.06272   0.00000   0.00000
   0.00000   0.00000   0.00000  -0.71017   0.00000   0.00000   0.06192   0.00000
   0.00000   0.00000   0.00000   0.00000  -0.70897   0.00000   0.00000   0.06272
   0.00000   0.00000   0.06272   0.00000   0.00000  -1.22372   0.00000   0.00000
   0.00000   0.00000   0.00000   0.06192   0.00000   0.00000  -1.22487   0.00000
   0.00000   0.00000   0.00000   0.00000   0.06272   0.00000   0.00000  -1.22372


 Augmentation waves occupancies Rhoij:
 Atom #  1
   2.00130   0.00132   0.00356   0.00000   0.00000   0.00000   0.00000   0.00000   0.00000   0.00000   0.00000   0.00000 ...
   0.00132   1.49551   0.02069   0.00000  -0.00000   0.00000   0.00000  -0.00000  -0.00000   0.00000   0.00000   0.00000 ...
   0.00356   0.02069   0.00036   0.00000   0.00000   0.00000   0.00000   0.00000   0.00000   0.00000   0.00000   0.00000 ...
   0.00000   0.00000   0.00000   1.99957   0.00000   0.00000  -0.03054  -0.00000   0.00000   0.00845   0.00000   0.00000 ...
   0.00000  -0.00000   0.00000   0.00000   1.99957   0.00000  -0.00000  -0.03054  -0.00000   0.00000   0.00845   0.00000 ...
   0.00000   0.00000   0.00000   0.00000   0.00000   1.99957   0.00000  -0.00000  -0.03054   0.00000   0.00000   0.00845 ...
   0.00000   0.00000   0.00000  -0.03054  -0.00000   0.00000   2.14900  -0.00000   0.00000   0.03405   0.00000   0.00000 ...
   0.00000  -0.00000   0.00000  -0.00000  -0.03054  -0.00000  -0.00000   2.14900  -0.00000   0.00000   0.03405   0.00000 ...
   0.00000  -0.00000   0.00000   0.00000  -0.00000  -0.03054   0.00000  -0.00000   2.14900   0.00000   0.00000   0.03405 ...
   0.00000   0.00000   0.00000   0.00845   0.00000   0.00000   0.03405   0.00000   0.00000   0.00072   0.00000   0.00000 ...
   0.00000   0.00000   0.00000   0.00000   0.00845   0.00000   0.00000   0.03405   0.00000   0.00000   0.00072   0.00000 ...
   0.00000   0.00000   0.00000   0.00000   0.00000   0.00845   0.00000   0.00000   0.03405   0.00000   0.00000   0.00072 ...
   ...  only 12  components have been written...
 Atom #  5
   1.89750   0.01285  -0.00000  -0.00000   0.00000   0.00000   0.00000   0.00000
   0.01285   0.00022   0.00000   0.00000   0.00000   0.00000   0.00000   0.00000
  -0.00000   0.00000   1.30892   0.00000   0.00000   0.12607   0.00000   0.00000
  -0.00000   0.00000   0.00000   1.27024  -0.00000   0.00000   0.12748   0.00000
   0.00000   0.00000   0.00000  -0.00000   1.30892   0.00000   0.00000   0.12607
   0.00000   0.00000   0.12607   0.00000   0.00000   0.01218   0.00000   0.00000
   0.00000   0.00000   0.00000   0.12748   0.00000   0.00000   0.01288   0.00000
   0.00000   0.00000   0.00000   0.00000   0.12607   0.00000   0.00000   0.01218


================================================================================

 ----iterations are completed or convergence reached----

 Mean square residual over all n,k,spin=   2.2804E-09; max=  1.2974E-06
  -0.1667 -0.3333  0.0000    1  6.46306E-08 kpt; spin; max resid(k); each band:
  8.30E-16 6.20E-16 4.04E-16 4.85E-16 2.60E-16 2.14E-16 5.62E-16 4.18E-16
  2.02E-16 6.42E-16 5.66E-16 5.41E-16 7.03E-16 3.46E-16 5.75E-16 5.32E-16
  1.20E-16 4.11E-16 6.01E-16 3.68E-16 4.03E-16 2.42E-16 3.31E-16 1.60E-16
  5.39E-16 8.34E-16 8.19E-16 9.37E-16 3.86E-15 6.46E-08
  -0.3333 -0.1667  0.0000    1  5.00861E-08 kpt; spin; max resid(k); each band:
  8.42E-16 5.43E-16 6.15E-16 4.81E-16 3.89E-16 2.13E-16 4.22E-16 4.10E-16
  2.07E-16 7.29E-16 6.77E-16 6.25E-16 6.25E-16 3.02E-16 6.97E-16 7.58E-16
  3.60E-16 5.69E-16 4.49E-16 6.29E-16 4.15E-17 2.67E-16 4.03E-16 1.59E-16
  8.21E-16 7.09E-16 9.90E-16 8.92E-16 7.88E-16 5.01E-08
  -0.1667 -0.1667  0.1667    1  3.65848E-07 kpt; spin; max resid(k); each band:
  5.28E-16 5.62E-16 5.23E-16 4.82E-16 5.69E-16 1.50E-16 6.49E-16 3.95E-16
  5.24E-16 4.25E-16 6.68E-16 2.91E-16 5.25E-16 4.87E-16 7.34E-16 7.74E-16
  5.87E-16 4.57E-16 7.51E-16 8.61E-16 5.51E-16 1.66E-16 2.62E-16 2.12E-16
  2.34E-16 1.85E-16 4.03E-16 8.51E-16 6.99E-15 3.66E-07
  -0.1667  0.3333  0.0000    1  1.15313E-09 kpt; spin; max resid(k); each band:
  7.69E-16 6.20E-16 3.95E-16 4.84E-16 2.64E-16 2.13E-16 5.64E-16 4.18E-16
  1.99E-16 6.38E-16 6.49E-16 5.38E-16 7.05E-16 3.40E-16 5.77E-16 5.28E-16
  1.22E-16 4.11E-16 5.96E-16 3.68E-16 3.99E-16 2.34E-16 3.40E-16 1.51E-16
  2.69E-16 8.83E-16 6.89E-16 8.47E-16 9.69E-16 1.15E-09
  -0.3333  0.5000  0.0000    1  9.53517E-16 kpt; spin; max resid(k); each band:
  3.78E-16 6.65E-16 4.50E-16 4.83E-16 3.12E-16 3.17E-16 4.67E-16 4.04E-16
  1.76E-16 6.53E-16 4.86E-16 4.28E-16 6.49E-16 5.17E-16 4.62E-16 5.29E-16
  3.65E-16 8.29E-16 4.41E-16 4.74E-16 2.51E-16 4.02E-16 1.22E-16 1.87E-16
  2.62E-16 3.33E-16 8.18E-16 9.54E-16 8.53E-16 9.12E-16
  -0.1667  0.5000  0.1667    1  9.33557E-16 kpt; spin; max resid(k); each band:
  3.72E-16 6.65E-16 4.43E-16 4.41E-16 6.32E-16 3.15E-16 5.75E-16 3.78E-16
  4.61E-16 5.63E-16 8.92E-16 8.08E-16 7.08E-16 4.19E-16 5.14E-16 6.76E-16
  4.09E-16 3.02E-16 5.22E-16 5.26E-16 4.28E-16 9.03E-17 1.86E-16 3.23E-16
  1.99E-16 6.33E-16 4.51E-16 9.34E-16 7.41E-16 7.81E-16
   0.5000 -0.3333  0.0000    1  9.37649E-16 kpt; spin; max resid(k); each band:
  3.57E-16 5.43E-16 5.73E-16 4.76E-16 3.62E-16 4.49E-16 2.84E-16 4.64E-16
  2.02E-16 7.84E-16 3.90E-16 5.50E-16 4.97E-16 3.71E-16 6.53E-16 7.98E-16
  3.55E-16 5.06E-16 6.28E-16 3.28E-16 9.69E-17 2.55E-16 1.08E-16 2.38E-16
  2.80E-16 5.84E-16 8.94E-16 5.20E-16 9.38E-16 9.23E-16
  -0.3333 -0.3333  0.1667    1  9.81735E-16 kpt; spin; max resid(k); each band:
  7.85E-16 5.96E-16 4.79E-16 5.26E-16 4.46E-16 4.07E-16 3.64E-16 4.21E-16
  4.05E-16 6.32E-16 6.66E-16 5.16E-16 4.67E-16 6.31E-16 7.47E-16 7.96E-16
  6.17E-16 4.85E-16 4.73E-16 4.08E-16 4.27E-16 2.50E-16 3.51E-16 5.08E-16
  8.77E-16 9.37E-16 5.02E-16 7.03E-16 5.95E-16 9.82E-16
  -0.1667 -0.3333  0.3333    1  8.69975E-16 kpt; spin; max resid(k); each band:
  7.10E-16 6.82E-16 5.21E-16 3.84E-16 6.22E-16 3.99E-16 6.08E-16 4.62E-16
  4.98E-16 5.00E-16 8.57E-16 5.89E-16 3.34E-16 7.05E-16 7.87E-16 7.09E-16
  4.18E-16 4.92E-16 3.76E-16 5.53E-16 3.80E-16 3.08E-16 2.03E-16 3.15E-16
  6.71E-16 8.70E-16 6.70E-16 8.07E-16 7.56E-16 7.43E-16
   0.3333 -0.1667  0.0000    1  1.26497E-07 kpt; spin; max resid(k); each band:
  7.95E-16 5.56E-16 5.88E-16 4.66E-16 3.60E-16 2.13E-16 4.21E-16 4.09E-16
  2.09E-16 7.36E-16 7.86E-16 6.22E-16 6.25E-16 3.04E-16 6.93E-16 7.64E-16
  3.62E-16 5.74E-16 4.47E-16 6.83E-16 4.44E-17 2.70E-16 4.01E-16 1.64E-16
  8.23E-16 9.15E-16 6.61E-16 9.95E-16 8.68E-16 1.26E-07
   0.5000 -0.1667  0.1667    1  9.49417E-16 kpt; spin; max resid(k); each band:
  4.50E-16 5.90E-16 6.21E-16 6.32E-16 4.76E-16 3.37E-16 2.49E-16 3.95E-16
  4.60E-16 4.17E-16 7.92E-16 5.41E-16 7.05E-16 5.11E-16 5.83E-16 8.48E-16
  4.25E-16 5.61E-16 5.19E-16 1.09E-16 5.38E-17 1.41E-16 2.98E-16 3.40E-16
  5.27E-16 9.49E-16 4.70E-16 8.80E-16 6.78E-16 8.39E-16
  -0.3333 -0.1667  0.3333    1  9.91401E-16 kpt; spin; max resid(k); each band:
  7.63E-16 4.96E-16 5.04E-16 5.81E-16 2.87E-16 3.68E-16 2.78E-16 4.77E-16
  7.30E-16 5.03E-16 5.23E-16 5.98E-16 4.33E-16 8.68E-16 5.49E-16 6.95E-16
  5.79E-16 7.84E-16 9.91E-16 4.36E-16 5.00E-16 2.47E-16 1.77E-16 3.74E-16
  4.33E-16 5.86E-16 7.38E-16 9.58E-16 6.58E-16 7.58E-16
  -0.1667 -0.1667  0.5000    1  8.70491E-16 kpt; spin; max resid(k); each band:
  5.11E-16 5.28E-16 5.43E-16 5.35E-16 2.64E-16 2.71E-16 6.68E-16 3.96E-16
  4.36E-16 6.47E-16 8.59E-16 7.18E-16 8.32E-16 2.71E-16 4.68E-16 8.70E-16
  3.87E-16 3.93E-16 7.38E-16 7.47E-16 5.21E-16 2.98E-16 2.65E-16 1.39E-16
  2.05E-16 7.23E-16 6.47E-16 8.47E-16 6.37E-16 7.30E-16
  -0.1667  0.0000  0.0000    1  6.67340E-11 kpt; spin; max resid(k); each band:
  3.72E-16 3.95E-16 4.32E-16 4.80E-16 6.81E-16 1.91E-16 3.18E-16 2.31E-16
  4.32E-16 2.08E-16 8.30E-16 1.23E-16 1.97E-16 2.21E-16 8.92E-16 6.98E-16
  7.37E-16 5.39E-16 3.82E-16 4.48E-16 7.36E-17 2.54E-16 4.92E-16 8.23E-17
  1.23E-16 5.01E-16 6.44E-16 8.32E-16 6.67E-11 2.82E-16
  -0.1667  0.1667  0.1667    1  3.96643E-07 kpt; spin; max resid(k); each band:
  5.70E-16 5.57E-16 4.84E-16 4.59E-16 3.12E-16 1.50E-16 6.57E-16 4.03E-16
  5.29E-16 4.25E-16 7.63E-16 2.84E-16 5.26E-16 4.56E-16 7.65E-16 7.07E-16
  6.04E-16 5.84E-16 7.85E-16 6.80E-16 5.39E-16 1.83E-16 2.25E-16 2.22E-16
  2.67E-16 8.43E-16 3.51E-16 8.50E-16 8.66E-16 3.97E-07
  -0.3333  0.3333  0.1667    1  9.45309E-16 kpt; spin; max resid(k); each band:
  7.67E-16 5.67E-16 4.93E-16 5.14E-16 2.84E-16 4.04E-16 3.61E-16 4.21E-16
  4.05E-16 6.33E-16 6.92E-16 5.14E-16 4.68E-16 6.30E-16 7.48E-16 7.98E-16
  6.26E-16 4.88E-16 5.71E-16 4.11E-16 4.24E-16 2.51E-16 3.51E-16 4.71E-16
  4.60E-16 7.93E-16 5.09E-16 7.30E-16 9.45E-16 9.31E-16
  -0.1667  0.3333  0.3333    1  8.60977E-16 kpt; spin; max resid(k); each band:
  7.77E-16 7.00E-16 5.12E-16 3.75E-16 8.09E-16 3.96E-16 6.13E-16 4.66E-16
  4.99E-16 4.96E-16 8.57E-16 5.77E-16 3.31E-16 7.23E-16 7.76E-16 7.17E-16
  4.17E-16 4.94E-16 3.77E-16 5.53E-16 3.76E-16 3.11E-16 2.01E-16 2.96E-16
  8.46E-16 7.97E-16 4.92E-16 5.96E-16 8.61E-16 8.20E-16
   0.5000  0.5000  0.1667    1  9.08856E-16 kpt; spin; max resid(k); each band:
  5.66E-16 6.72E-16 4.93E-16 5.13E-16 4.71E-16 4.58E-16 4.72E-16 2.73E-16
  1.63E-16 3.80E-17 4.52E-16 3.43E-16 4.51E-16 1.75E-16 6.37E-16 5.09E-16
  3.39E-16 4.54E-16 5.71E-16 4.44E-16 1.59E-16 2.58E-16 1.01E-16 1.13E-16
  6.61E-16 5.60E-16 9.09E-16 8.12E-16 6.11E-16 8.05E-16
  -0.3333  0.5000  0.3333    1  8.49799E-16 kpt; spin; max resid(k); each band:
  4.52E-16 6.64E-16 4.53E-16 4.56E-16 3.19E-16 2.73E-16 4.50E-16 4.04E-16
  3.12E-16 7.35E-16 3.16E-16 2.88E-16 4.55E-16 5.44E-16 4.41E-16 6.73E-16
  5.09E-16 4.18E-16 3.27E-16 3.10E-16 2.90E-16 2.55E-16 2.40E-16 2.83E-16
  8.34E-16 2.53E-16 5.86E-16 2.17E-16 8.50E-16 7.71E-16
  -0.1667  0.5000  0.5000    1  8.88074E-16 kpt; spin; max resid(k); each band:
  7.38E-16 6.48E-16 7.43E-16 3.73E-16 2.69E-16 3.36E-16 3.01E-16 2.84E-16
  3.37E-16 7.38E-16 4.24E-16 5.52E-16 6.08E-16 5.55E-16 6.58E-16 5.80E-16
  4.43E-16 8.88E-16 5.34E-16 5.86E-16 1.62E-16 3.45E-16 1.46E-16 3.80E-16
  4.24E-16 7.40E-16 8.04E-16 7.13E-16 6.81E-16 7.66E-16
   0.3333 -0.3333  0.1667    1  9.82918E-16 kpt; spin; max resid(k); each band:
  8.17E-16 5.62E-16 4.86E-16 5.08E-16 4.81E-16 4.02E-16 3.60E-16 4.20E-16
  4.08E-16 6.34E-16 7.04E-16 5.15E-16 4.68E-16 6.31E-16 7.53E-16 7.97E-16
  6.25E-16 4.86E-16 4.67E-16 7.49E-16 4.22E-16 2.53E-16 3.50E-16 4.66E-16
  7.65E-16 5.61E-16 7.38E-16 5.95E-16 8.29E-16 9.83E-16
   0.5000 -0.3333  0.3333    1  9.97057E-16 kpt; spin; max resid(k); each band:
  8.25E-16 5.47E-16 6.61E-16 6.81E-16 2.26E-16 2.91E-16 2.21E-16 6.39E-16
  4.51E-16 5.59E-16 4.43E-16 3.06E-16 4.78E-16 8.81E-16 3.27E-16 6.22E-16
  5.72E-16 8.21E-16 5.00E-16 7.37E-16 3.34E-16 1.60E-16 1.10E-16 4.37E-16
  7.17E-16 7.28E-16 7.30E-16 1.96E-16 8.97E-16 9.97E-16
  -0.3333 -0.3333  0.5000    1  9.60512E-16 kpt; spin; max resid(k); each band:
  8.50E-16 5.37E-16 5.87E-16 4.54E-16 5.58E-16 2.32E-16 6.67E-16 4.34E-16
  4.48E-16 4.03E-16 4.37E-16 3.01E-16 2.42E-16 7.93E-16 4.82E-16 9.13E-16
  6.46E-16 2.79E-16 5.98E-16 4.55E-16 2.78E-16 1.97E-16 1.88E-16 7.18E-16
  6.55E-16 3.59E-16 8.45E-16 5.51E-16 9.61E-16 7.79E-16
  -0.1667 -0.3333 -0.3333    1  9.58531E-16 kpt; spin; max resid(k); each band:
  8.44E-16 6.16E-16 6.56E-16 3.85E-16 4.62E-16 3.92E-16 6.13E-16 4.64E-16
  5.08E-16 5.04E-16 8.32E-16 5.72E-16 3.32E-16 7.22E-16 7.83E-16 7.14E-16
  4.27E-16 4.94E-16 3.69E-16 5.58E-16 3.72E-16 3.11E-16 2.02E-16 4.11E-16
  2.97E-16 8.01E-16 9.57E-16 8.83E-16 8.10E-16 9.59E-16
   0.0000 -0.1667  0.0000    1  7.00051E-12 kpt; spin; max resid(k); each band:
  3.62E-16 6.22E-16 4.97E-16 4.32E-16 6.80E-16 5.83E-16 4.00E-16 4.03E-16
  1.79E-16 3.90E-16 4.83E-16 4.03E-16 2.17E-16 5.92E-16 6.15E-16 5.18E-16
  2.76E-16 8.85E-16 3.26E-16 1.79E-16 3.41E-16 5.93E-16 1.23E-16 1.88E-16
  3.86E-16 4.30E-16 6.59E-16 8.93E-16 7.00E-12 2.46E-16
   0.1667 -0.1667  0.1667    1  1.08070E-07 kpt; spin; max resid(k); each band:
  5.43E-16 5.74E-16 4.91E-16 4.71E-16 8.97E-16 1.50E-16 6.46E-16 4.02E-16
  5.36E-16 4.28E-16 7.33E-16 2.93E-16 5.23E-16 4.61E-16 7.64E-16 7.79E-16
  6.27E-16 4.16E-16 7.83E-16 7.19E-16 5.27E-16 1.61E-16 1.97E-16 2.42E-16
  2.72E-16 8.88E-16 6.31E-16 8.69E-16 1.19E-14 1.08E-07
   0.3333 -0.1667  0.3333    1  8.96679E-16 kpt; spin; max resid(k); each band:
  7.66E-16 4.84E-16 5.02E-16 5.86E-16 8.13E-16 3.64E-16 2.73E-16 4.84E-16
  7.25E-16 5.03E-16 5.52E-16 5.86E-16 4.32E-16 8.89E-16 5.47E-16 7.00E-16
  5.73E-16 7.76E-16 8.87E-17 4.34E-16 5.05E-16 2.45E-16 1.73E-16 2.41E-16
  8.97E-16 5.45E-16 8.40E-16 7.74E-16 6.49E-16 7.90E-16
   0.5000 -0.1667  0.5000    1  9.29973E-15 kpt; spin; max resid(k); each band:
  7.13E-16 5.73E-16 5.70E-16 5.35E-16 3.85E-16 5.04E-16 2.82E-16 2.54E-16
  4.17E-16 7.56E-16 8.45E-16 4.19E-16 8.79E-16 5.81E-16 5.88E-16 8.68E-16
  2.94E-16 4.61E-16 8.67E-16 6.74E-16 2.62E-16 3.00E-16 1.25E-16 3.64E-16
  4.81E-16 5.40E-16 6.56E-16 6.33E-16 4.15E-16 9.30E-15
  -0.3333 -0.1667 -0.3333    1  9.16408E-16 kpt; spin; max resid(k); each band:
  8.21E-16 4.88E-16 5.00E-16 5.79E-16 2.85E-16 3.60E-16 2.74E-16 4.85E-16
  7.24E-16 5.04E-16 5.49E-16 5.82E-16 4.31E-16 8.90E-16 5.46E-16 7.01E-16
  5.84E-16 7.77E-16 8.84E-17 4.36E-16 5.00E-16 2.41E-16 1.74E-16 2.24E-16
  5.20E-16 3.98E-16 7.02E-16 7.89E-16 8.35E-16 9.16E-16
  -0.1667 -0.1667 -0.1667    1  5.67250E-07 kpt; spin; max resid(k); each band:
  7.05E-16 5.51E-16 5.06E-16 4.56E-16 8.84E-16 1.50E-16 6.58E-16 4.00E-16
  5.43E-16 4.44E-16 6.38E-16 2.76E-16 5.32E-16 4.70E-16 7.46E-16 6.76E-16
  5.65E-16 5.62E-16 8.24E-16 6.54E-16 5.53E-16 2.37E-16 2.60E-16 2.02E-16
  2.54E-16 7.63E-16 8.83E-16 8.86E-16 3.06E-15 5.67E-07
   0.5000  0.0000  0.0000    1  1.46983E-10 kpt; spin; max resid(k); each band:
  3.22E-16 4.36E-16 4.60E-16 5.77E-16 6.79E-16 6.57E-16 6.00E-16 2.08E-16
  5.58E-16 3.05E-16 6.62E-16 1.71E-16 4.91E-16 4.16E-16 2.78E-16 2.10E-16
  8.65E-16 3.04E-16 4.97E-16 7.46E-16 5.52E-17 2.91E-16 5.78E-16 1.06E-16
  1.67E-16 7.21E-16 8.70E-16 7.30E-16 1.18E-14 1.47E-10
  -0.3333  0.0000  0.1667    1  1.78152E-08 kpt; spin; max resid(k); each band:
  7.30E-16 5.85E-16 5.66E-16 5.24E-16 3.72E-16 2.05E-16 4.50E-16 4.07E-16
  4.93E-16 5.88E-16 5.18E-16 6.33E-16 7.42E-16 3.04E-16 8.75E-16 7.33E-16
  7.25E-16 6.53E-16 5.04E-16 3.38E-16 2.90E-17 2.25E-16 1.83E-16 1.61E-16
  7.16E-16 8.09E-16 6.84E-16 8.76E-16 5.40E-16 1.78E-08
  -0.1667  0.0000  0.3333    1  4.03860E-08 kpt; spin; max resid(k); each band:
  6.46E-16 5.18E-16 4.24E-16 5.30E-16 3.22E-16 1.72E-16 3.89E-16 4.74E-16
  3.90E-16 7.20E-16 7.89E-16 6.41E-16 6.04E-16 4.52E-16 6.52E-16 3.55E-16
  6.75E-17 4.69E-16 5.97E-16 6.24E-16 5.24E-16 2.28E-16 2.27E-16 1.47E-16
  4.49E-16 6.58E-16 9.26E-16 9.42E-16 9.34E-16 4.04E-08
   0.5000  0.1667  0.1667    1  9.78358E-16 kpt; spin; max resid(k); each band:
  4.23E-16 5.84E-16 6.32E-16 6.27E-16 5.40E-16 3.22E-16 2.61E-16 3.95E-16
  4.64E-16 4.16E-16 7.98E-16 5.22E-16 6.99E-16 5.05E-16 5.87E-16 8.57E-16
  4.33E-16 5.56E-16 5.18E-16 1.15E-16 5.51E-17 3.60E-16 2.99E-16 3.36E-16
  5.58E-16 4.55E-16 6.13E-16 7.95E-16 9.78E-16 5.01E-16
  -0.3333  0.1667  0.3333    1  9.94276E-16 kpt; spin; max resid(k); each band:
  7.92E-16 4.81E-16 5.04E-16 5.88E-16 8.07E-16 3.67E-16 2.77E-16 4.73E-16
  7.31E-16 5.04E-16 5.29E-16 5.95E-16 4.30E-16 8.68E-16 5.49E-16 7.00E-16
  5.86E-16 7.86E-16 9.94E-16 4.37E-16 4.93E-16 2.45E-16 1.78E-16 3.64E-16
  9.18E-16 9.66E-16 6.64E-16 8.53E-16 9.21E-16 8.98E-16
  -0.1667  0.1667  0.5000    1  9.70531E-16 kpt; spin; max resid(k); each band:
  5.16E-16 5.19E-16 5.50E-16 5.60E-16 2.70E-16 2.72E-16 6.72E-16 3.91E-16
  4.18E-16 6.58E-16 8.58E-16 7.19E-16 8.34E-16 2.70E-16 4.67E-16 8.69E-16
  3.88E-16 3.90E-16 7.37E-16 7.49E-16 5.20E-16 3.00E-16 2.65E-16 1.44E-16
  1.85E-16 8.52E-16 9.71E-16 9.48E-16 6.20E-16 5.05E-16
   0.3333  0.3333  0.1667    1  9.15623E-16 kpt; spin; max resid(k); each band:
  3.04E-16 4.73E-16 5.00E-16 5.16E-16 3.18E-16 4.00E-16 3.60E-16 4.19E-16
  4.06E-16 6.38E-16 7.10E-16 5.09E-16 4.69E-16 6.32E-16 7.52E-16 7.99E-16
  6.32E-16 4.88E-16 4.62E-16 7.34E-16 4.25E-16 2.56E-16 3.49E-16 4.66E-16
  8.88E-16 4.42E-16 6.48E-16 6.86E-16 9.16E-16 7.09E-16
   0.5000  0.3333  0.3333    1  8.81717E-16 kpt; spin; max resid(k); each band:
  8.76E-16 5.49E-16 6.70E-16 6.70E-16 2.09E-16 2.92E-16 2.35E-16 6.38E-16
  4.57E-16 5.58E-16 4.22E-16 3.07E-16 4.73E-16 8.59E-16 3.29E-16 6.26E-16
  5.81E-16 8.21E-16 4.88E-16 7.99E-16 3.29E-16 1.57E-16 1.12E-16 3.38E-16
  6.73E-16 6.66E-16 5.28E-16 7.07E-16 8.82E-16 6.65E-16
  -0.3333  0.3333  0.5000    1  9.82006E-16 kpt; spin; max resid(k); each band:
  6.05E-16 5.32E-16 4.47E-16 4.61E-16 2.96E-16 2.33E-16 6.68E-16 4.35E-16
  4.62E-16 4.05E-16 4.43E-16 3.01E-16 2.49E-16 7.95E-16 4.82E-16 9.11E-16
  6.46E-16 2.78E-16 5.99E-16 4.58E-16 2.79E-16 1.96E-16 1.89E-16 6.98E-16
  6.06E-16 3.76E-16 8.29E-16 4.01E-16 6.39E-16 9.82E-16
  -0.1667  0.3333 -0.3333    1  9.99449E-16 kpt; spin; max resid(k); each band:
  8.39E-16 6.89E-16 6.95E-16 3.82E-16 5.07E-16 3.94E-16 6.07E-16 4.62E-16
  5.03E-16 5.04E-16 8.20E-16 5.87E-16 3.32E-16 7.06E-16 7.88E-16 7.06E-16
  4.31E-16 4.95E-16 3.69E-16 5.57E-16 3.75E-16 3.10E-16 2.03E-16 2.87E-16
  5.25E-16 4.66E-16 6.97E-16 5.51E-16 6.10E-16 9.99E-16
   0.0000  0.5000  0.0000    1  1.12710E-10 kpt; spin; max resid(k); each band:
  6.15E-16 6.20E-16 5.66E-16 3.30E-16 1.93E-16 8.09E-16 3.54E-16 5.92E-16
  1.81E-16 4.97E-16 4.51E-16 8.03E-16 3.73E-16 5.61E-16 4.59E-16 2.75E-16
  6.09E-16 2.83E-16 5.88E-16 6.57E-16 7.01E-16 1.11E-16 4.60E-16 1.79E-16
  4.65E-16 8.99E-16 5.66E-16 5.68E-16 1.59E-12 1.13E-10
   0.1667  0.5000  0.1667    1  9.69261E-16 kpt; spin; max resid(k); each band:
  6.44E-16 6.67E-16 4.64E-16 4.43E-16 2.34E-16 2.97E-16 5.75E-16 3.78E-16
  4.66E-16 4.57E-16 8.95E-16 7.99E-16 7.03E-16 4.18E-16 5.13E-16 6.80E-16
  4.06E-16 3.04E-16 5.09E-16 5.29E-16 4.30E-16 9.12E-17 3.21E-16 3.16E-16
  1.82E-16 7.59E-16 8.45E-16 9.69E-16 8.40E-16 7.68E-16
   0.3333  0.5000  0.3333    1  9.74554E-16 kpt; spin; max resid(k); each band:
  4.24E-16 6.66E-16 4.72E-16 4.41E-16 2.67E-16 2.74E-16 4.50E-16 4.10E-16
  3.00E-16 7.36E-16 3.15E-16 2.87E-16 4.51E-16 5.43E-16 4.43E-16 6.78E-16
  5.26E-16 4.16E-16 3.86E-16 3.95E-16 2.09E-16 2.55E-16 2.18E-16 7.50E-16
  8.25E-16 6.66E-16 7.25E-16 6.35E-16 7.32E-16 9.75E-16
   0.5000  0.5000  0.5000    1  1.29742E-06 kpt; spin; max resid(k); each band:
  7.07E-16 6.68E-16 7.01E-16 5.94E-16 4.14E-16 5.28E-16 2.50E-16 2.81E-16
  9.79E-16 3.09E-16 3.95E-16 2.88E-16 1.84E-16 5.26E-16 5.71E-16 7.65E-16
  6.59E-16 5.20E-16 4.72E-16 4.25E-16 3.02E-16 3.21E-16 1.50E-16 6.20E-16
  4.29E-16 7.71E-16 3.34E-16 5.74E-16 1.12E-14 1.30E-06
   0.0000 -0.3333  0.1667    1  2.25113E-08 kpt; spin; max resid(k); each band:
  7.44E-16 6.27E-16 5.18E-16 4.36E-16 3.15E-16 2.25E-16 5.58E-16 4.60E-16
  4.32E-16 4.66E-16 6.37E-16 7.09E-16 2.37E-16 9.66E-17 9.72E-16 3.83E-16
  4.32E-16 6.82E-16 4.36E-16 5.39E-16 3.02E-16 2.27E-16 3.15E-16 2.07E-16
  5.07E-16 9.38E-16 6.89E-16 7.46E-16 8.96E-16 2.25E-08
   0.0000 -0.1667  0.3333    1  2.53728E-07 kpt; spin; max resid(k); each band:
  6.73E-16 5.09E-16 6.06E-16 4.35E-16 2.92E-16 1.81E-16 5.55E-16 4.99E-16
  3.20E-16 6.34E-16 7.52E-16 7.42E-16 5.12E-16 9.67E-17 8.17E-16 4.25E-16
  4.52E-16 6.61E-16 4.55E-16 5.94E-16 5.37E-16 3.96E-16 2.81E-16 2.10E-16
  6.93E-16 7.95E-16 9.56E-16 8.18E-16 7.18E-16 2.54E-07
   0.3333  0.0000  0.1667    1  2.66508E-08 kpt; spin; max resid(k); each band:
  7.54E-16 5.78E-16 5.00E-16 5.23E-16 6.07E-16 2.06E-16 4.50E-16 4.09E-16
  4.88E-16 5.75E-16 5.03E-16 6.32E-16 7.41E-16 3.03E-16 8.89E-16 7.36E-16
  7.12E-16 6.66E-16 5.05E-16 3.36E-16 7.39E-16 2.31E-16 1.83E-16 1.76E-16
  7.41E-16 9.65E-16 9.12E-16 8.50E-16 9.87E-16 2.67E-08
   0.5000  0.0000  0.3333    1  9.91611E-16 kpt; spin; max resid(k); each band:
  8.91E-16 5.24E-16 5.16E-16 4.92E-16 3.80E-16 3.56E-16 2.68E-16 5.09E-16
  3.20E-16 4.77E-16 4.96E-16 5.55E-16 8.51E-16 3.11E-16 9.52E-16 4.59E-16
  3.29E-16 2.17E-16 2.20E-16 4.03E-16 4.04E-16 1.93E-16 1.34E-16 1.53E-16
  7.45E-16 5.91E-16 7.73E-16 6.08E-16 9.92E-16 9.10E-16
  -0.3333  0.0000  0.5000    1  8.85385E-16 kpt; spin; max resid(k); each band:
  8.46E-16 5.48E-16 4.61E-16 4.96E-16 2.95E-16 2.35E-16 5.96E-16 3.73E-16
  3.52E-16 7.59E-16 7.06E-16 4.44E-16 8.85E-16 3.94E-16 4.47E-16 7.08E-16
  4.71E-16 8.03E-16 7.56E-16 7.17E-16 2.19E-16 2.26E-16 1.43E-16 1.30E-16
  2.44E-16 5.64E-16 8.55E-16 7.18E-16 5.79E-16 6.82E-16
  -0.1667  0.0000 -0.3333    1  2.94669E-08 kpt; spin; max resid(k); each band:
  7.45E-16 5.18E-16 4.25E-16 5.27E-16 3.36E-16 1.73E-16 3.86E-16 4.75E-16
  3.92E-16 7.20E-16 7.91E-16 6.37E-16 6.11E-16 2.61E-16 6.62E-16 3.56E-16
  6.63E-17 4.77E-16 6.06E-16 6.24E-16 5.19E-16 2.44E-16 2.37E-16 1.53E-16
  4.34E-16 9.67E-16 7.02E-16 9.42E-16 6.04E-16 2.95E-08
 outwf : prtvol=0 or 1, do not print more k-points.

 reduced coordinates (array xred) for    5 atoms
       0.000000000000      0.000000000000      0.000000000000
       0.500000000000      0.500000000000      0.500000000000
       0.500000000000      0.000000000000      0.000000000000
       0.000000000000      0.500000000000      0.000000000000
       0.000000000000      0.000000000000      0.500000000000
 rms dE/dt=  9.5338E-09; max dE/dt=  1.5530E-08; dE/dt below (all hartree)
    1       0.000000004141     -0.000000005078      0.000000005915
    2      -0.000000012954      0.000000015530     -0.000000008832
    3      -0.000000005568     -0.000000011232      0.000000009729
    4       0.000000001607      0.000000007729      0.000000006745
    5       0.000000013794     -0.000000011221     -0.000000011075

 cartesian coordinates (angstrom) at end:
    1      0.00000000000000     0.00000000000000     0.00000000000000
    2      1.92104556148385     1.92104556148385     1.92104556148385
    3      1.92104556148385     0.00000000000000     0.00000000000000
    4      0.00000000000000     1.92104556148385     0.00000000000000
    5      0.00000000000000     0.00000000000000     1.92104556148385

 cartesian forces (hartree/bohr) at end:
    1     -0.00000000054227     0.00000000058176    -0.00000000074633
    2      0.00000000181232    -0.00000000225661     0.00000000128487
    3      0.00000000079499     0.00000000142930    -0.00000000127166
    4     -0.00000000019321    -0.00000000118222    -0.00000000086067
    5     -0.00000000187183     0.00000000142776     0.00000000159380
 frms,max,avg= 1.3106585E-09 2.2566073E-09  -2.811E-11  1.177E-10 -6.838E-11 h/b

 cartesian forces (eV/Angstrom) at end:
    1     -0.00000002788474     0.00000002991544    -0.00000003837808
    2      0.00000009319308    -0.00000011603940     0.00000006607059
    3      0.00000004088019     0.00000007349780    -0.00000006539161
    4     -0.00000000993515    -0.00000006079201    -0.00000004425736
    5     -0.00000009625338     0.00000007341818     0.00000008195646
 frms,max,avg= 6.7396765E-08 1.1603940E-07  -1.445E-09  6.051E-09 -3.516E-09 e/A
 length scales=  7.260500000000  7.260500000000  7.260500000000 bohr
              =  3.842091122968  3.842091122968  3.842091122968 angstroms
 prteigrs : about to open file tdmft_1o_DS1_EIG
 Fermi (or HOMO) energy (hartree) =   0.29649   Average Vxc (hartree)=  -0.44725
 Eigenvalues (hartree) for nkpt=  56  k points:
 kpt#   1, nband= 30, wtk=  0.01852, kpt= -0.1667 -0.3333  0.0000 (reduced coord)
  -2.09710  -1.14897  -1.14823  -1.14786  -0.95798  -0.44821  -0.41054  -0.40792
  -0.29706  -0.29607  -0.28708   0.05853   0.08754   0.10081   0.10250   0.13076
   0.15071   0.17631   0.18224   0.18734   0.28851   0.32151   0.32220   0.36314
   0.43203   0.49346   0.50134   0.54031   0.54843   0.57874
      occupation numbers for kpt#   1
   2.00000   2.00000   2.00000   2.00000   2.00000   2.00000   2.00000   2.00000
   2.00000   2.00000   2.00000   2.00000   2.00000   2.00000   2.00000   2.00000
   2.00000   2.00000   2.00000   2.00000   1.78212   0.00276   0.00230   0.00000
   0.00000   0.00000   0.00000   0.00000   0.00000   0.00000
 kpt#   2, nband= 30, wtk=  0.01852, kpt= -0.3333 -0.1667  0.0000 (reduced coord)
  -2.09710  -1.14897  -1.14823  -1.14786  -0.95798  -0.44821  -0.41054  -0.40792
  -0.29706  -0.29607  -0.28708   0.05853   0.08754   0.10081   0.10250   0.13076
   0.15071   0.17631   0.18224   0.18734   0.28851   0.32151   0.32220   0.36314
   0.43203   0.49346   0.50134   0.54031   0.54843   0.57874
      occupation numbers for kpt#   2
   2.00000   2.00000   2.00000   2.00000   2.00000   2.00000   2.00000   2.00000
   2.00000   2.00000   2.00000   2.00000   2.00000   2.00000   2.00000   2.00000
   2.00000   2.00000   2.00000   2.00000   1.78212   0.00276   0.00230   0.00000
   0.00000   0.00000   0.00000   0.00000   0.00000   0.00000
 kpt#   3, nband= 30, wtk=  0.01852, kpt= -0.1667 -0.1667  0.1667 (reduced coord)
  -2.09711  -1.14826  -1.14823  -1.14823  -0.95829  -0.44650  -0.41079  -0.41079
  -0.29830  -0.29830  -0.28954   0.07181   0.09541   0.09541   0.13051   0.13051
   0.15084   0.19072   0.19305   0.19305   0.29551   0.29933   0.29933   0.39343
   0.39343   0.47283   0.47283   0.50357   0.56275   0.56276
      occupation numbers for kpt#   3
   2.00000   2.00000   2.00000   2.00000   2.00000   2.00000   2.00000   2.00000
   2.00000   2.00000   2.00000   2.00000   2.00000   2.00000   2.00000   2.00000
   2.00000   2.00000   2.00000   2.00000   1.12888   0.64309   0.64309   0.00000
   0.00000   0.00000   0.00000   0.00000   0.00000   0.00000
 kpt#   4, nband= 30, wtk=  0.01852, kpt= -0.1667  0.3333  0.0000 (reduced coord)
  -2.09710  -1.14897  -1.14823  -1.14786  -0.95798  -0.44821  -0.41054  -0.40792
  -0.29706  -0.29607  -0.28708   0.05853   0.08754   0.10081   0.10250   0.13076
   0.15071   0.17631   0.18224   0.18734   0.28851   0.32151   0.32220   0.36314
   0.43203   0.49346   0.50134   0.54031   0.54843   0.57874
      occupation numbers for kpt#   4
   2.00000   2.00000   2.00000   2.00000   2.00000   2.00000   2.00000   2.00000
   2.00000   2.00000   2.00000   2.00000   2.00000   2.00000   2.00000   2.00000
   2.00000   2.00000   2.00000   2.00000   1.78212   0.00276   0.00230   0.00000
   0.00000   0.00000   0.00000   0.00000   0.00000   0.00000
 kpt#   5, nband= 30, wtk=  0.01852, kpt= -0.3333  0.5000  0.0000 (reduced coord)
  -2.09708  -1.14927  -1.14889  -1.14782  -0.95723  -0.43584  -0.41207  -0.40996
  -0.29494  -0.29266  -0.28924   0.04011   0.04913   0.06558   0.10392   0.11141
   0.15303   0.15535   0.16341   0.21359   0.32119   0.33521   0.34111   0.37797
   0.48845   0.53197   0.53700   0.57404   0.57856   0.59506
      occupation numbers for kpt#   5
   2.00000   2.00000   2.00000   2.00000   2.00000   2.00000   2.00000   2.00000
   2.00000   2.00000   2.00000   2.00000   2.00000   2.00000   2.00000   2.00000
   2.00000   2.00000   2.00000   2.00000   0.00300   0.00008   0.00002   0.00000
   0.00000   0.00000   0.00000   0.00000   0.00000   0.00000
 kpt#   6, nband= 30, wtk=  0.01852, kpt= -0.1667  0.5000  0.1667 (reduced coord)
  -2.09709  -1.14930  -1.14820  -1.14818  -0.95745  -0.44370  -0.40783  -0.40764
  -0.30099  -0.29193  -0.28767   0.04406   0.07591   0.08788   0.09779   0.09904
   0.14296   0.17449   0.18145   0.18320   0.30100   0.33584   0.33783   0.39113
   0.45506   0.52330   0.52411   0.56051   0.56802   0.56847
      occupation numbers for kpt#   6
   2.00000   2.00000   2.00000   2.00000   2.00000   2.00000   2.00000   2.00000
   2.00000   2.00000   2.00000   2.00000   2.00000   2.00000   2.00000   2.00000
   2.00000   2.00000   2.00000   2.00000   0.46782   0.00006   0.00004   0.00000
   0.00000   0.00000   0.00000   0.00000   0.00000   0.00000
 kpt#   7, nband= 30, wtk=  0.01852, kpt=  0.5000 -0.3333  0.0000 (reduced coord)
  -2.09708  -1.14927  -1.14889  -1.14782  -0.95723  -0.43584  -0.41207  -0.40996
  -0.29494  -0.29266  -0.28924   0.04011   0.04913   0.06558   0.10392   0.11141
   0.15303   0.15535   0.16341   0.21359   0.32119   0.33521   0.34111   0.37797
   0.48845   0.53197   0.53700   0.57404   0.57856   0.59506
      occupation numbers for kpt#   7
   2.00000   2.00000   2.00000   2.00000   2.00000   2.00000   2.00000   2.00000
   2.00000   2.00000   2.00000   2.00000   2.00000   2.00000   2.00000   2.00000
   2.00000   2.00000   2.00000   2.00000   0.00300   0.00008   0.00002   0.00000
   0.00000   0.00000   0.00000   0.00000   0.00000   0.00000
 kpt#   8, nband= 30, wtk=  0.01852, kpt= -0.3333 -0.3333  0.1667 (reduced coord)
  -2.09708  -1.14891  -1.14888  -1.14817  -0.95725  -0.43477  -0.41170  -0.40707
  -0.30075  -0.29688  -0.28852   0.04828   0.07055   0.07123   0.09275   0.10430
   0.12075   0.17986   0.18556   0.21031   0.32409   0.32691   0.33452   0.41209
   0.47101   0.51868   0.53097   0.53554   0.56559   0.58342
      occupation numbers for kpt#   8
[...]
                       2.000000  2.000000  2.000000  2.000000  2.000000  2.000000
                       2.000000  2.000000  0.000027  0.000027  0.000002  0.000000
                       0.000000  0.000000  0.000000  0.000000  0.000000  0.000000
                       2.000000  2.000000  2.000000  2.000000  2.000000  2.000000
                       2.000000  2.000000  2.000000  2.000000  2.000000  2.000000
                       2.000000  2.000000  2.000000  2.000000  2.000000  2.000000
                       2.000000  2.000000  0.001401  0.000669  0.000090  0.000000
                       0.000000  0.000000  0.000000  0.000000  0.000000  0.000000
                       2.000000  2.000000  2.000000  2.000000  2.000000  2.000000
                       2.000000  2.000000  2.000000  2.000000  2.000000  2.000000
                       2.000000  2.000000  2.000000  2.000000  2.000000  2.000000
                       2.000000  2.000000  0.000016  0.000003  0.000002  0.000000
                       0.000000  0.000000  0.000000  0.000000  0.000000  0.000000
                       2.000000  2.000000  2.000000  2.000000  2.000000  2.000000
                       2.000000  2.000000  2.000000  2.000000  2.000000  2.000000
                       2.000000  2.000000  2.000000  2.000000  2.000000  2.000000
                       2.000000  2.000000  0.000016  0.000003  0.000002  0.000000
                       0.000000  0.000000  0.000000  0.000000  0.000000  0.000000
                       2.000000  2.000000  2.000000  2.000000  2.000000  2.000000
                       2.000000  2.000000  2.000000  2.000000  2.000000  2.000000
                       2.000000  2.000000  2.000000  2.000000  2.000000  2.000000
                       2.000000  2.000000  0.001401  0.000669  0.000090  0.000000
                       0.000000  0.000000  0.000000  0.000000  0.000000  0.000000
                       2.000000  2.000000  2.000000  2.000000  2.000000  2.000000
                       2.000000  2.000000  2.000000  2.000000  2.000000  2.000000
                       2.000000  2.000000  2.000000  2.000000  2.000000  2.000000
                       2.000000  2.000000  1.999628  1.840588  1.840588  0.000008
                       0.000000  0.000000  0.000000  0.000000  0.000000  0.000000
                       2.000000  2.000000  2.000000  2.000000  2.000000  2.000000
                       2.000000  2.000000  2.000000  2.000000  2.000000  2.000000
                       2.000000  2.000000  2.000000  2.000000  2.000000  2.000000
                       2.000000  2.000000  1.128878  0.643089  0.643089  0.000000
                       0.000000  0.000000  0.000000  0.000000  0.000000  0.000000
                       2.000000  2.000000  2.000000  2.000000  2.000000  2.000000
                       2.000000  2.000000  2.000000  2.000000  2.000000  2.000000
                       2.000000  2.000000  2.000000  2.000000  2.000000  2.000000
                       2.000000  2.000000  0.001401  0.000669  0.000090  0.000000
                       0.000000  0.000000  0.000000  0.000000  0.000000  0.000000
                       2.000000  2.000000  2.000000  2.000000  2.000000  2.000000
                       2.000000  2.000000  2.000000  2.000000  2.000000  2.000000
                       2.000000  2.000000  2.000000  2.000000  2.000000  2.000000
                       2.000000  2.000000  0.000027  0.000027  0.000002  0.000000
                       0.000000  0.000000  0.000000  0.000000  0.000000  0.000000
                       2.000000  2.000000  2.000000  2.000000  2.000000  2.000000
                       2.000000  2.000000  2.000000  2.000000  2.000000  2.000000
                       2.000000  2.000000  2.000000  2.000000  2.000000  2.000000
                       2.000000  2.000000  0.001401  0.000669  0.000090  0.000000
                       0.000000  0.000000  0.000000  0.000000  0.000000  0.000000
                       2.000000  2.000000  2.000000  2.000000  2.000000  2.000000
                       2.000000  2.000000  2.000000  2.000000  2.000000  2.000000
                       2.000000  2.000000  2.000000  2.000000  2.000000  2.000000
                       2.000000  2.000000  1.128878  0.643089  0.643089  0.000000
                       0.000000  0.000000  0.000000  0.000000  0.000000  0.000000
                       2.000000  2.000000  2.000000  2.000000  2.000000  2.000000
                       2.000000  2.000000  2.000000  2.000000  2.000000  2.000000
                       2.000000  2.000000  2.000000  2.000000  2.000000  2.000000
                       2.000000  2.000000  1.999076  0.000053  0.000053  0.000007
                       0.000000  0.000000  0.000000  0.000000  0.000000  0.000000
                       2.000000  2.000000  2.000000  2.000000  2.000000  2.000000
                       2.000000  2.000000  2.000000  2.000000  2.000000  2.000000
                       2.000000  2.000000  2.000000  2.000000  2.000000  2.000000
                       2.000000  2.000000  1.782116  0.002764  0.002305  0.000000
                       0.000000  0.000000  0.000000  0.000000  0.000000  0.000000
                       2.000000  2.000000  2.000000  2.000000  2.000000  2.000000
                       2.000000  2.000000  2.000000  2.000000  2.000000  2.000000
                       2.000000  2.000000  2.000000  2.000000  2.000000  2.000000
                       2.000000  2.000000  1.782116  0.002764  0.002305  0.000000
                       0.000000  0.000000  0.000000  0.000000  0.000000  0.000000
                       2.000000  2.000000  2.000000  2.000000  2.000000  2.000000
                       2.000000  2.000000  2.000000  2.000000  2.000000  2.000000
                       2.000000  2.000000  2.000000  2.000000  2.000000  2.000000
                       2.000000  2.000000  0.467824  0.000064  0.000038  0.000000
                       0.000000  0.000000  0.000000  0.000000  0.000000  0.000000
                       2.000000  2.000000  2.000000  2.000000  2.000000  2.000000
                       2.000000  2.000000  2.000000  2.000000  2.000000  2.000000
                       2.000000  2.000000  2.000000  2.000000  2.000000  2.000000
                       2.000000  2.000000  0.001401  0.000669  0.000090  0.000000
                       0.000000  0.000000  0.000000  0.000000  0.000000  0.000000
                       2.000000  2.000000  2.000000  2.000000  2.000000  2.000000
                       2.000000  2.000000  2.000000  2.000000  2.000000  2.000000
                       2.000000  2.000000  2.000000  2.000000  2.000000  2.000000
                       2.000000  2.000000  0.467824  0.000064  0.000038  0.000000
                       0.000000  0.000000  0.000000  0.000000  0.000000  0.000000
                       2.000000  2.000000  2.000000  2.000000  2.000000  2.000000
                       2.000000  2.000000  2.000000  2.000000  2.000000  2.000000
                       2.000000  2.000000  2.000000  2.000000  2.000000  2.000000
                       2.000000  2.000000  0.001401  0.000669  0.000090  0.000000
                       0.000000  0.000000  0.000000  0.000000  0.000000  0.000000
                       2.000000  2.000000  2.000000  2.000000  2.000000  2.000000
                       2.000000  2.000000  2.000000  2.000000  2.000000  2.000000
                       2.000000  2.000000  2.000000  2.000000  2.000000  2.000000
                       2.000000  2.000000  0.000016  0.000003  0.000002  0.000000
                       0.000000  0.000000  0.000000  0.000000  0.000000  0.000000
                       2.000000  2.000000  2.000000  2.000000  2.000000  2.000000
                       2.000000  2.000000  2.000000  2.000000  2.000000  2.000000
                       2.000000  2.000000  2.000000  2.000000  2.000000  2.000000
                       2.000000  2.000000  0.000016  0.000003  0.000002  0.000000
                       0.000000  0.000000  0.000000  0.000000  0.000000  0.000000
                       2.000000  2.000000  2.000000  2.000000  2.000000  2.000000
                       2.000000  2.000000  2.000000  2.000000  2.000000  2.000000
                       2.000000  2.000000  2.000000  2.000000  2.000000  2.000000
                       2.000000  2.000000  0.001401  0.000669  0.000090  0.000000
                       0.000000  0.000000  0.000000  0.000000  0.000000  0.000000
                       2.000000  2.000000  2.000000  2.000000  2.000000  2.000000
                       2.000000  2.000000  2.000000  2.000000  2.000000  2.000000
                       2.000000  2.000000  2.000000  2.000000  2.000000  2.000000
                       2.000000  2.000000  1.999076  0.000053  0.000053  0.000007
                       0.000000  0.000000  0.000000  0.000000  0.000000  0.000000
                       2.000000  2.000000  2.000000  2.000000  2.000000  2.000000
                       2.000000  2.000000  2.000000  2.000000  2.000000  2.000000
                       2.000000  2.000000  2.000000  2.000000  2.000000  2.000000
                       2.000000  2.000000  0.467824  0.000064  0.000038  0.000000
                       0.000000  0.000000  0.000000  0.000000  0.000000  0.000000
                       2.000000  2.000000  2.000000  2.000000  2.000000  2.000000
                       2.000000  2.000000  2.000000  2.000000  2.000000  2.000000
                       2.000000  2.000000  2.000000  2.000000  2.000000  2.000000
                       2.000000  2.000000  0.000016  0.000003  0.000002  0.000000
                       0.000000  0.000000  0.000000  0.000000  0.000000  0.000000
                       2.000000  2.000000  2.000000  2.000000  2.000000  2.000000
                       2.000000  2.000000  2.000000  2.000000  2.000000  2.000000
                       2.000000  2.000000  2.000000  2.000000  2.000000  2.000000
                       2.000000  2.000000  0.000000  0.000000  0.000000  0.000000
                       0.000000  0.000000  0.000000  0.000000  0.000000  0.000000
                       2.000000  2.000000  2.000000  2.000000  2.000000  2.000000
                       2.000000  2.000000  2.000000  2.000000  2.000000  2.000000
                       2.000000  2.000000  2.000000  2.000000  2.000000  2.000000
                       2.000000  2.000000  1.782116  0.002764  0.002305  0.000000
                       0.000000  0.000000  0.000000  0.000000  0.000000  0.000000
                       2.000000  2.000000  2.000000  2.000000  2.000000  2.000000
                       2.000000  2.000000  2.000000  2.000000  2.000000  2.000000
                       2.000000  2.000000  2.000000  2.000000  2.000000  2.000000
                       2.000000  2.000000  1.782116  0.002764  0.002305  0.000000
                       0.000000  0.000000  0.000000  0.000000  0.000000  0.000000
                       2.000000  2.000000  2.000000  2.000000  2.000000  2.000000
                       2.000000  2.000000  2.000000  2.000000  2.000000  2.000000
                       2.000000  2.000000  2.000000  2.000000  2.000000  2.000000
                       2.000000  2.000000  1.782116  0.002764  0.002305  0.000000
                       0.000000  0.000000  0.000000  0.000000  0.000000  0.000000
                       2.000000  2.000000  2.000000  2.000000  2.000000  2.000000
                       2.000000  2.000000  2.000000  2.000000  2.000000  2.000000
                       2.000000  2.000000  2.000000  2.000000  2.000000  2.000000
                       2.000000  2.000000  0.003004  0.000075  0.000016  0.000000
                       0.000000  0.000000  0.000000  0.000000  0.000000  0.000000
                       2.000000  2.000000  2.000000  2.000000  2.000000  2.000000
                       2.000000  2.000000  2.000000  2.000000  2.000000  2.000000
                       2.000000  2.000000  2.000000  2.000000  2.000000  2.000000
                       2.000000  2.000000  0.003004  0.000075  0.000016  0.000000
                       0.000000  0.000000  0.000000  0.000000  0.000000  0.000000
                       2.000000  2.000000  2.000000  2.000000  2.000000  2.000000
                       2.000000  2.000000  2.000000  2.000000  2.000000  2.000000
                       2.000000  2.000000  2.000000  2.000000  2.000000  2.000000
                       2.000000  2.000000  1.782116  0.002764  0.002305  0.000000
                       0.000000  0.000000  0.000000  0.000000  0.000000  0.000000
                       prtocc : prtvol=0, do not print more k-points.
           occopt           3
        pawecutdg      2.00000000E+01 Hartree
        pawfatbnd1          0
        pawfatbnd2          1
        pawprtvol           3
           shiftk      5.00000000E-01  5.00000000E-01  5.00000000E-01
          spgroup           1
           strten1     3.5334950878E-03  3.5334948700E-03  3.5334949587E-03
                      -3.1242013040E-12 -4.1616122256E-12 -3.5584112950E-13
           tolwfr      1.00000000E-15
           tsmear      3.80017850E-03 Hartree
            typat      1  2  3  3  3
           useylm           1
              wtk1       0.01852    0.01852    0.01852    0.01852    0.01852    0.01852
                         0.01852    0.01852    0.01852    0.01852    0.01852    0.01852
                         0.01852    0.01852    0.01852    0.01852    0.01852    0.01852
                         0.01852    0.01852    0.01852    0.01852    0.01852    0.01852
                         0.01852    0.01852    0.01852    0.01852    0.01852    0.01852
                         0.00926    0.01852    0.01852    0.01852    0.01852    0.01852
                         0.01852    0.01852    0.01852    0.01852    0.00926    0.01852
                         0.01852    0.00926    0.01852    0.01852    0.01852    0.01852
                         0.01852    0.01852
              wtk2       1.00000    1.00000    1.00000    1.00000    1.00000    1.00000
                         1.00000    1.00000    1.00000    1.00000    1.00000    1.00000
                         1.00000    1.00000    1.00000    1.00000    1.00000    1.00000
                         1.00000    1.00000    1.00000    1.00000    1.00000    1.00000
                         1.00000    1.00000    1.00000    1.00000    1.00000    1.00000
                         1.00000    1.00000    1.00000    1.00000    1.00000    1.00000
                         1.00000    1.00000    1.00000    1.00000    1.00000    1.00000
                         1.00000    1.00000    1.00000    1.00000    1.00000    1.00000
                         1.00000    1.00000
                       outvars : Printing only first  50 k-points.
           xangst      0.0000000000E+00  0.0000000000E+00  0.0000000000E+00
                       1.9210455615E+00  1.9210455615E+00  1.9210455615E+00
                       1.9210455615E+00  0.0000000000E+00  0.0000000000E+00
                       0.0000000000E+00  1.9210455615E+00  0.0000000000E+00
                       0.0000000000E+00  0.0000000000E+00  1.9210455615E+00
            xcart      0.0000000000E+00  0.0000000000E+00  0.0000000000E+00
                       3.6302500000E+00  3.6302500000E+00  3.6302500000E+00
                       3.6302500000E+00  0.0000000000E+00  0.0000000000E+00
                       0.0000000000E+00  3.6302500000E+00  0.0000000000E+00
                       0.0000000000E+00  0.0000000000E+00  3.6302500000E+00
             xred      0.0000000000E+00  0.0000000000E+00  0.0000000000E+00
                       5.0000000000E-01  5.0000000000E-01  5.0000000000E-01
                       5.0000000000E-01  0.0000000000E+00  0.0000000000E+00
                       0.0000000000E+00  5.0000000000E-01  0.0000000000E+00
                       0.0000000000E+00  0.0000000000E+00  5.0000000000E-01
            znucl       23.00000   38.00000    8.00000

================================================================================


- Timing analysis has been suppressed with timopt=0



================================================================================

 Suggested references for the acknowledgment of ABINIT usage.

 The users of ABINIT have little formal obligations with respect to the ABINIT group
 (those specified in the GNU General Public License, http://www.gnu.org/copyleft/gpl.txt).
 However, it is common practice in the scientific literature,
 to acknowledge the efforts of people that have made the research possible.
 In this spirit, please find below suggested citations of work written by ABINIT developers,
 corresponding to implementations inside of ABINIT that you have used in the present run.
 Note also that it will be of great value to readers of publications presenting these results,
 to read papers enabling them to understand the theoretical formalism and details
 of the ABINIT implementation.
 For information on why they are suggested, see also https://docs.abinit.org/theory/acknowledgments.
-
- [1] Implementation of the Projector Augmented-Wave Method in the ABINIT code.
- M. Torrent, F. Jollet, F. Bottin, G. Zerah, and X. Gonze Comput. Mat. Science 42, 337, (2008).
- Comment : PAW calculations. Strong suggestion to cite this paper.
-
- [2] ABINIT : First-principles approach of materials and nanosystem properties.
- X. Gonze, B. Amadon, P.-M. Anglade, J.-M. Beuken, F. Bottin, P. Boulanger, F. Bruneval,
- D. Caliste, R. Caracas, M. Cote, T. Deutsch, L. Genovese, Ph. Ghosez, M. Giantomassi
- S. Goedecker, D.R. Hamann, P. Hermet, F. Jollet, G. Jomard, S. Leroux, M. Mancini, S. Mazevet,
- M.J.T. Oliveira, G. Onida, Y. Pouillon, T. Rangel, G.-M. Rignanese, D. Sangalli, R. Shaltaf,
- M. Torrent, M.J. Verstraete, G. Zerah, J.W. Zwanziger
- Computer Phys. Comm. 180, 2582-2615 (2009).
- Comment : the third generic paper describing the ABINIT project.
- Note that a version of this paper, that is not formatted for Computer Phys. Comm. 
- is available at https://www.abinit.org/about/ABINIT_CPC_v10.pdf .
- The licence allows the authors to put it on the Web.
-
- [3] A brief introduction to the ABINIT software package.
- X. Gonze, G.-M. Rignanese, M. Verstraete, J.-M. Beuken, Y. Pouillon, R. Caracas, F. Jollet,
- M. Torrent, G. Zerah, M. Mikami, Ph. Ghosez, M. Veithen, J.-Y. Raty, V. Olevano, F. Bruneval,
- L. Reining, R. Godby, G. Onida, D.R. Hamann, and D.C. Allan.
- Z. Kristallogr. 220, 558-562 (2005).
- Comment : the second generic paper describing the ABINIT project. Note that this paper
- should be cited especially if you are using the GW part of ABINIT, as several authors
- of this part are not in the list of authors of the first or third paper.
- The .pdf of the latter paper is available at https://www.abinit.org/about/zfk_0505-06_558-562.pdf.
- Note that it should not redistributed (Copyright by Oldenburg Wissenshaftverlag,
- the licence allows the authors to put it on the Web).
-
-
- And optionally :
-
- [4] First-principles computation of material properties : the ABINIT software project. 
- X. Gonze, J.-M. Beuken, R. Caracas, F. Detraux, M. Fuchs, G.-M. Rignanese, L. Sindic,
- M. Verstraete, G. Zerah, F. Jollet, M. Torrent, A. Roy, M. Mikami, Ph. Ghosez, J.-Y. Raty, D.C. Allan.
- Computational Materials Science 25, 478-492 (2002). http://dx.doi.org/10.1016/S0927-0256(02)00325-7
- Comment : the original paper describing the ABINIT project.
-
- [5] Fast radix 2, 3, 4 and 5 kernels for Fast Fourier Transformations
- on computers with overlapping multiply-add instructions.
- S. Goedecker, SIAM J. on Scientific Computing 18, 1605 (1997).
-
- Proc.   0 individual time (sec): cpu=        125.1  wall=        141.1

================================================================================

 Calculation completed.
.Delivered    4 WARNINGs and   0 COMMENTs to log file.
+Overall time at end (sec) : cpu=       4351.1  wall=       4514.5
