
.Version 6.10.1 of ABINIT 
.(MPI version, prepared for a x86_64_linux_intel12.0 computer) 

.Copyright (C) 1998-2020 ABINIT group . 
 ABINIT comes with ABSOLUTELY NO WARRANTY.
 It is free software, and you are welcome to redistribute it
 under certain conditions (GNU General Public License,
 see ~abinit/COPYING or http://www.gnu.org/copyleft/gpl.txt).

 ABINIT is a project of the Universite Catholique de Louvain,
 Corning Inc. and other collaborators, see ~abinit/doc/developers/contributors.txt .
 Please read https://docs.abinit.org/theory/acknowledgments for suggested
 acknowledgments of the ABINIT effort.
 For more information, see https://www.abinit.org .

.Starting date : Mon  7 Nov 2011.
- ( at  1h33 )
  
- input  file    -> tgspw_04.in
- output file    -> tgspw_04.out
- root for input  files -> tgspw_04.i
- root for output files -> tgspw_04.o


 Symmetries : space group Pm -3 m (#221); Bravais cP (primitive cubic)
================================================================================
 Values of the parameters that define the memory need of the present run
   intxc =         0  ionmov =         0    iscf =         7 xclevel =         1
  lmnmax =         2   lnmax =         2   mband =       648  mffmem =         1
P  mgfft =        96   mkmem =         1 mpssoang=         3     mpw =       155
  mqgrid =      4012   natom =       107    nfft =    221184    nkpt =         1
  nloalg =         4  nspden =         1 nspinor =         1  nsppol =         1
    nsym =        48  n1xccc =      2501  ntypat =         1  occopt =         3
================================================================================
P This job should need less than                     103.595 Mbytes of memory.
  Rough estimation (10% accuracy) of disk space for files :
  WF disk file :      6.132 Mbytes ; DEN or POT disk file :      1.690 Mbytes.
================================================================================

--------------------------------------------------------------------------------
------------- Echo of variables that govern the present computation ------------
--------------------------------------------------------------------------------
-
- outvars: echo of selected default values                                      
-   accesswff0 =  0 , fftalg0 =401 , wfoptalg0 =  0
-
- outvars: echo of global parameters not present in the input file              
-   nproc =  108
-
 -outvars: echo values of preprocessed input variables --------
        accesswff           1
            acell      2.3010000000E+01  2.3010000000E+01  2.3010000000E+01 Bohr
              amu      1.96966540E+02
           bandpp           2
     densfor_pred           6
             ecut      1.50000000E+01 Hartree
           istwfk        2
          kptrlen      2.30100000E+01
         kptrlatt      1  0  0   0  1  0   0  0  1
P           mkmem           1
            natom         107
            nband         648
            ngfft          96      96      96
             nkpt           1
           npband          27
            npfft           4
            nstep           2
             nsym          48
           ntypat           1
              occ      2.000000  2.000000  2.000000  2.000000  2.000000  2.000000
                       2.000000  2.000000  2.000000  2.000000  2.000000  2.000000
                       2.000000  2.000000  2.000000  2.000000  2.000000  2.000000
                       2.000000  2.000000  2.000000  2.000000  2.000000  2.000000
                       2.000000  2.000000  2.000000  2.000000  2.000000  2.000000
                       2.000000  2.000000  2.000000  2.000000  2.000000  2.000000
                       2.000000  2.000000  2.000000  2.000000  2.000000  2.000000
                       2.000000  2.000000  2.000000  2.000000  2.000000  2.000000
                       2.000000  2.000000  2.000000  2.000000  2.000000  2.000000
                       2.000000  2.000000  2.000000  2.000000  2.000000  2.000000
                       2.000000  2.000000  2.000000  2.000000  2.000000  2.000000
                       2.000000  2.000000  2.000000  2.000000  2.000000  2.000000
                       2.000000  2.000000  2.000000  2.000000  2.000000  2.000000
                       2.000000  2.000000  2.000000  2.000000  2.000000  2.000000
                       2.000000  2.000000  2.000000  2.000000  2.000000  2.000000
                       2.000000  2.000000  2.000000  2.000000  2.000000  2.000000
                       2.000000  2.000000  2.000000  2.000000  2.000000  2.000000
                       2.000000  2.000000  2.000000  2.000000  2.000000  2.000000
                       2.000000  2.000000  2.000000  2.000000  2.000000  2.000000
                       2.000000  2.000000  2.000000  2.000000  2.000000  2.000000
                       2.000000  2.000000  2.000000  2.000000  2.000000  2.000000
                       2.000000  2.000000  2.000000  2.000000  2.000000  2.000000
                       2.000000  2.000000  2.000000  2.000000  2.000000  2.000000
                       2.000000  2.000000  2.000000  2.000000  2.000000  2.000000
                       2.000000  2.000000  2.000000  2.000000  2.000000  2.000000
                       2.000000  2.000000  2.000000  2.000000  2.000000  2.000000
                       2.000000  2.000000  2.000000  2.000000  2.000000  2.000000
                       2.000000  2.000000  2.000000  2.000000  2.000000  2.000000
                       2.000000  2.000000  2.000000  2.000000  2.000000  2.000000
                       2.000000  2.000000  2.000000  2.000000  2.000000  2.000000
                       2.000000  2.000000  2.000000  2.000000  2.000000  2.000000
                       2.000000  2.000000  2.000000  2.000000  2.000000  2.000000
                       2.000000  2.000000  2.000000  2.000000  2.000000  2.000000
                       2.000000  2.000000  2.000000  2.000000  2.000000  2.000000
                       2.000000  2.000000  2.000000  2.000000  2.000000  2.000000
                       2.000000  2.000000  2.000000  2.000000  2.000000  2.000000
                       2.000000  2.000000  2.000000  2.000000  2.000000  2.000000
                       2.000000  2.000000  2.000000  2.000000  2.000000  2.000000
                       2.000000  2.000000  2.000000  2.000000  2.000000  2.000000
                       2.000000  2.000000  2.000000  2.000000  2.000000  2.000000
                       2.000000  2.000000  2.000000  2.000000  2.000000  2.000000
                       2.000000  2.000000  2.000000  2.000000  2.000000  2.000000
                       2.000000  2.000000  2.000000  2.000000  2.000000  2.000000
                       2.000000  2.000000  2.000000  2.000000  2.000000  2.000000
                       2.000000  2.000000  2.000000  2.000000  2.000000  2.000000
                       2.000000  2.000000  2.000000  2.000000  2.000000  2.000000
                       2.000000  2.000000  2.000000  2.000000  2.000000  2.000000
                       2.000000  2.000000  2.000000  2.000000  2.000000  2.000000
                       2.000000  2.000000  2.000000  2.000000  2.000000  2.000000
                       2.000000  2.000000  2.000000  2.000000  2.000000  2.000000
                       2.000000  2.000000  2.000000  2.000000  2.000000  2.000000
                       2.000000  2.000000  2.000000  2.000000  2.000000  2.000000
                       2.000000  2.000000  2.000000  2.000000  2.000000  2.000000
                       2.000000  2.000000  2.000000  2.000000  2.000000  2.000000
                       2.000000  2.000000  2.000000  2.000000  2.000000  2.000000
                       2.000000  2.000000  2.000000  2.000000  2.000000  2.000000
                       2.000000  2.000000  2.000000  2.000000  2.000000  2.000000
                       2.000000  2.000000  2.000000  2.000000  2.000000  2.000000
                       2.000000  2.000000  2.000000  2.000000  2.000000  2.000000
                       2.000000  2.000000  2.000000  2.000000  2.000000  2.000000
                       2.000000  2.000000  2.000000  2.000000  2.000000  2.000000
                       2.000000  2.000000  2.000000  2.000000  2.000000  2.000000
                       2.000000  2.000000  2.000000  2.000000  2.000000  2.000000
                       2.000000  2.000000  2.000000  2.000000  2.000000  2.000000
                       2.000000  2.000000  2.000000  2.000000  2.000000  2.000000
                       2.000000  2.000000  2.000000  2.000000  2.000000  2.000000
                       2.000000  2.000000  2.000000  2.000000  2.000000  2.000000
                       2.000000  2.000000  2.000000  2.000000  2.000000  2.000000
                       2.000000  2.000000  2.000000  2.000000  2.000000  2.000000
                       2.000000  2.000000  2.000000  2.000000  2.000000  2.000000
                       2.000000  2.000000  2.000000  2.000000  2.000000  2.000000
                       2.000000  2.000000  2.000000  2.000000  2.000000  2.000000
                       2.000000  2.000000  2.000000  2.000000  2.000000  2.000000
                       2.000000  2.000000  2.000000  2.000000  2.000000  2.000000
                       2.000000  2.000000  2.000000  2.000000  2.000000  2.000000
                       2.000000  2.000000  2.000000  2.000000  2.000000  2.000000
                       2.000000  2.000000  2.000000  2.000000  2.000000  2.000000
                       2.000000  2.000000  2.000000  2.000000  2.000000  2.000000
                       2.000000  2.000000  2.000000  2.000000  2.000000  2.000000
                       2.000000  2.000000  2.000000  2.000000  2.000000  2.000000
                       2.000000  2.000000  2.000000  2.000000  2.000000  2.000000
                       2.000000  2.000000  2.000000  2.000000  2.000000  2.000000
                       2.000000  2.000000  2.000000  2.000000  2.000000  2.000000
                       2.000000  2.000000  2.000000  2.000000  2.000000  2.000000
                       2.000000  2.000000  2.000000  2.000000  2.000000  2.000000
                       2.000000  2.000000  2.000000  2.000000  2.000000  2.000000
                       2.000000  2.000000  2.000000  2.000000  2.000000  2.000000
                       2.000000  2.000000  2.000000  2.000000  2.000000  2.000000
                       2.000000  2.000000  2.000000  2.000000  2.000000  2.000000
                       2.000000  2.000000  2.000000  2.000000  2.000000  2.000000
                       2.000000  2.000000  2.000000  2.000000  2.000000  2.000000
                       2.000000  2.000000  2.000000  2.000000  2.000000  2.000000
                       2.000000  2.000000  2.000000  2.000000  2.000000  2.000000
                       2.000000  2.000000  2.000000  2.000000  2.000000  2.000000
                       2.000000  2.000000  2.000000  2.000000  2.000000  2.000000
                       2.000000  2.000000  2.000000  2.000000  2.000000  2.000000
                       2.000000  2.000000  2.000000  2.000000  2.000000  2.000000
                       2.000000  2.000000  2.000000  2.000000  2.000000  2.000000
                       1.000000  0.000000  0.000000  0.000000  0.000000  0.000000
                       0.000000  0.000000  0.000000  0.000000  0.000000  0.000000
                       0.000000  0.000000  0.000000  0.000000  0.000000  0.000000
                       0.000000  0.000000  0.000000  0.000000  0.000000  0.000000
                       0.000000  0.000000  0.000000  0.000000  0.000000  0.000000
                       0.000000  0.000000  0.000000  0.000000  0.000000  0.000000
                       0.000000  0.000000  0.000000  0.000000  0.000000  0.000000
                       0.000000  0.000000  0.000000  0.000000  0.000000  0.000000
                       0.000000  0.000000  0.000000  0.000000  0.000000  0.000000
                       0.000000  0.000000  0.000000  0.000000  0.000000  0.000000
           occopt           3
           ortalg          -2
        paral_kgb           1
           prteig           0
          spgroup         221
           symrel      1  0  0   0  1  0   0  0  1      -1  0  0   0 -1  0   0  0 -1
                      -1  0  0   0  1  0   0  0 -1       1  0  0   0 -1  0   0  0  1
                      -1  0  0   0 -1  0   0  0  1       1  0  0   0  1  0   0  0 -1
                       1  0  0   0 -1  0   0  0 -1      -1  0  0   0  1  0   0  0  1
                       0  1  0   1  0  0   0  0  1       0 -1  0  -1  0  0   0  0 -1
                       0 -1  0   1  0  0   0  0 -1       0  1  0  -1  0  0   0  0  1
                       0 -1  0  -1  0  0   0  0  1       0  1  0   1  0  0   0  0 -1
                       0  1  0  -1  0  0   0  0 -1       0 -1  0   1  0  0   0  0  1
                       0  0  1   1  0  0   0  1  0       0  0 -1  -1  0  0   0 -1  0
                       0  0 -1   1  0  0   0 -1  0       0  0  1  -1  0  0   0  1  0
                       0  0 -1  -1  0  0   0  1  0       0  0  1   1  0  0   0 -1  0
                       0  0  1  -1  0  0   0 -1  0       0  0 -1   1  0  0   0  1  0
                       1  0  0   0  0  1   0  1  0      -1  0  0   0  0 -1   0 -1  0
                      -1  0  0   0  0  1   0 -1  0       1  0  0   0  0 -1   0  1  0
                      -1  0  0   0  0 -1   0  1  0       1  0  0   0  0  1   0 -1  0
                       1  0  0   0  0 -1   0 -1  0      -1  0  0   0  0  1   0  1  0
                       0  1  0   0  0  1   1  0  0       0 -1  0   0  0 -1  -1  0  0
                       0 -1  0   0  0  1  -1  0  0       0  1  0   0  0 -1   1  0  0
                       0 -1  0   0  0 -1   1  0  0       0  1  0   0  0  1  -1  0  0
                       0  1  0   0  0 -1  -1  0  0       0 -1  0   0  0  1   1  0  0
                       0  0  1   0  1  0   1  0  0       0  0 -1   0 -1  0  -1  0  0
                       0  0 -1   0  1  0  -1  0  0       0  0  1   0 -1  0   1  0  0
                       0  0 -1   0 -1  0   1  0  0       0  0  1   0  1  0  -1  0  0
                       0  0  1   0 -1  0  -1  0  0       0  0 -1   0  1  0   1  0  0
           timopt          -3
           toldfe      1.00000000E-07 Hartree
           tsmear      2.00000000E-03 Hartree
            typat      1  1  1  1  1  1  1  1  1  1  1  1  1  1  1  1  1  1  1  1
                       1  1  1  1  1  1  1  1  1  1  1  1  1  1  1  1  1  1  1  1
                       1  1  1  1  1  1  1  1  1  1  1  1  1  1  1  1  1  1  1  1
                       1  1  1  1  1  1  1  1  1  1  1  1  1  1  1  1  1  1  1  1
                       1  1  1  1  1  1  1  1  1  1  1  1  1  1  1  1  1  1  1  1
                       1  1  1  1  1  1  1
         wfoptalg         114
           xangst      0.0000000000E+00  1.9879254564E+00  1.9879254564E+00
                       1.9879254564E+00  0.0000000000E+00  1.9879254564E+00
                       1.9879254564E+00  1.9879254564E+00  0.0000000000E+00
                       0.0000000000E+00  2.0263310236E+00  6.0881837848E+00
                       2.0263310236E+00  0.0000000000E+00  6.0881837848E+00
                       2.0209010573E+00  2.0209010573E+00  4.0442061240E+00
                       0.0000000000E+00  0.0000000000E+00  4.0488014894E+00
                       0.0000000000E+00  1.9879254564E+00  1.0188442113E+01
                       1.9879254564E+00  0.0000000000E+00  1.0188442113E+01
                       2.0209010573E+00  2.0209010573E+00  8.1321614456E+00
                       0.0000000000E+00  0.0000000000E+00  8.1275660803E+00
                       0.0000000000E+00  6.0881837848E+00  2.0263310236E+00
                       2.0209010573E+00  4.0442061240E+00  2.0209010573E+00
                       2.0263310236E+00  6.0881837848E+00  0.0000000000E+00
                       0.0000000000E+00  4.0488014894E+00  0.0000000000E+00
                       0.0000000000E+00  6.0881837848E+00  6.0881837848E+00
                       2.0273193191E+00  4.0537146258E+00  6.0881837848E+00
                       2.0273193191E+00  6.0881837848E+00  4.0537146258E+00
                       0.0000000000E+00  4.0564400668E+00  4.0564400668E+00
                       0.0000000000E+00  6.0881837848E+00  1.0150036546E+01
                       2.0209010573E+00  4.0442061240E+00  1.0155466512E+01
                       2.0273193191E+00  6.0881837848E+00  8.1226529438E+00
                       0.0000000000E+00  4.0564400668E+00  8.1199275028E+00
                       0.0000000000E+00  1.0188442113E+01  1.9879254564E+00
                       2.0209010573E+00  8.1321614456E+00  2.0209010573E+00
                       1.9879254564E+00  1.0188442113E+01  0.0000000000E+00
                       0.0000000000E+00  8.1275660803E+00  0.0000000000E+00
                       0.0000000000E+00  1.0150036546E+01  6.0881837848E+00
                       2.0273193191E+00  8.1226529438E+00  6.0881837848E+00
                       2.0209010573E+00  1.0155466512E+01  4.0442061240E+00
                       0.0000000000E+00  8.1199275028E+00  4.0564400668E+00
                       0.0000000000E+00  1.0188442113E+01  1.0188442113E+01
                       2.0209010573E+00  8.1321614456E+00  1.0155466512E+01
                       2.0209010573E+00  1.0155466512E+01  8.1321614456E+00
                       0.0000000000E+00  8.1199275028E+00  8.1199275028E+00
                       4.0442061240E+00  2.0209010573E+00  2.0209010573E+00
                       6.0881837848E+00  0.0000000000E+00  2.0263310236E+00
                       6.0881837848E+00  2.0263310236E+00  0.0000000000E+00
                       4.0488014894E+00  0.0000000000E+00  0.0000000000E+00
                       4.0537146258E+00  2.0273193191E+00  6.0881837848E+00
                       6.0881837848E+00  0.0000000000E+00  6.0881837848E+00
                       6.0881837848E+00  2.0273193191E+00  4.0537146258E+00
                       4.0564400668E+00  0.0000000000E+00  4.0564400668E+00
                       4.0442061240E+00  2.0209010573E+00  1.0155466512E+01
                       6.0881837848E+00  0.0000000000E+00  1.0150036546E+01
                       6.0881837848E+00  2.0273193191E+00  8.1226529438E+00
                       4.0564400668E+00  0.0000000000E+00  8.1199275028E+00
                       4.0537146258E+00  6.0881837848E+00  2.0273193191E+00
                       6.0881837848E+00  4.0537146258E+00  2.0273193191E+00
                       6.0881837848E+00  6.0881837848E+00  0.0000000000E+00
                       4.0564400668E+00  4.0564400668E+00  0.0000000000E+00
                       4.0566927952E+00  6.0881837848E+00  6.0881837848E+00
                       6.0881837848E+00  4.0566927952E+00  6.0881837848E+00
                       6.0881837848E+00  6.0881837848E+00  4.0566927952E+00
                       4.0550820334E+00  4.0550820334E+00  4.0550820334E+00
                       4.0537146258E+00  6.0881837848E+00  1.0149048251E+01
                       6.0881837848E+00  4.0537146258E+00  1.0149048251E+01
                       6.0881837848E+00  6.0881837848E+00  8.1196747744E+00
                       4.0550820334E+00  4.0550820334E+00  8.1212855363E+00
                       4.0442061240E+00  1.0155466512E+01  2.0209010573E+00
                       6.0881837848E+00  8.1226529438E+00  2.0273193191E+00
                       6.0881837848E+00  1.0150036546E+01  0.0000000000E+00
                       4.0564400668E+00  8.1199275028E+00  0.0000000000E+00
                       4.0537146258E+00  1.0149048251E+01  6.0881837848E+00
                       6.0881837848E+00  8.1196747744E+00  6.0881837848E+00
                       6.0881837848E+00  1.0149048251E+01  4.0537146258E+00
                       4.0550820334E+00  8.1212855363E+00  4.0550820334E+00
                       4.0442061240E+00  1.0155466512E+01  1.0155466512E+01
                       6.0881837848E+00  8.1226529438E+00  1.0149048251E+01
                       6.0881837848E+00  1.0149048251E+01  8.1226529438E+00
                       4.0550820334E+00  8.1212855363E+00  8.1212855363E+00
                       8.1321614456E+00  2.0209010573E+00  2.0209010573E+00
                       1.0188442113E+01  0.0000000000E+00  1.9879254564E+00
                       1.0188442113E+01  1.9879254564E+00  0.0000000000E+00
                       8.1275660803E+00  0.0000000000E+00  0.0000000000E+00
                       8.1226529438E+00  2.0273193191E+00  6.0881837848E+00
                       1.0150036546E+01  0.0000000000E+00  6.0881837848E+00
                       1.0155466512E+01  2.0209010573E+00  4.0442061240E+00
                       8.1199275028E+00  0.0000000000E+00  4.0564400668E+00
                       8.1321614456E+00  2.0209010573E+00  1.0155466512E+01
                       1.0188442113E+01  0.0000000000E+00  1.0188442113E+01
                       1.0155466512E+01  2.0209010573E+00  8.1321614456E+00
                       8.1199275028E+00  0.0000000000E+00  8.1199275028E+00
                       8.1226529438E+00  6.0881837848E+00  2.0273193191E+00
                       1.0155466512E+01  4.0442061240E+00  2.0209010573E+00
                       1.0150036546E+01  6.0881837848E+00  0.0000000000E+00
                       8.1199275028E+00  4.0564400668E+00  0.0000000000E+00
                       8.1196747744E+00  6.0881837848E+00  6.0881837848E+00
                       1.0149048251E+01  4.0537146258E+00  6.0881837848E+00
                       1.0149048251E+01  6.0881837848E+00  4.0537146258E+00
                       8.1212855363E+00  4.0550820334E+00  4.0550820334E+00
                       8.1226529438E+00  6.0881837848E+00  1.0149048251E+01
                       1.0155466512E+01  4.0442061240E+00  1.0155466512E+01
                       1.0149048251E+01  6.0881837848E+00  8.1226529438E+00
                       8.1212855363E+00  4.0550820334E+00  8.1212855363E+00
                       8.1321614456E+00  1.0155466512E+01  2.0209010573E+00
                       1.0155466512E+01  8.1321614456E+00  2.0209010573E+00
                       1.0188442113E+01  1.0188442113E+01  0.0000000000E+00
                       8.1199275028E+00  8.1199275028E+00  0.0000000000E+00
                       8.1226529438E+00  1.0149048251E+01  6.0881837848E+00
                       1.0149048251E+01  8.1226529438E+00  6.0881837848E+00
                       1.0155466512E+01  1.0155466512E+01  4.0442061240E+00
                       8.1212855363E+00  8.1212855363E+00  4.0550820334E+00
                       8.1321614456E+00  1.0155466512E+01  1.0155466512E+01
                       1.0155466512E+01  8.1321614456E+00  1.0155466512E+01
                       1.0155466512E+01  1.0155466512E+01  8.1321614456E+00
                       8.1212855363E+00  8.1212855363E+00  8.1212855363E+00
            xcart      0.0000000000E+00  3.7566346852E+00  3.7566346852E+00
                       3.7566346852E+00  0.0000000000E+00  3.7566346852E+00
                       3.7566346852E+00  3.7566346852E+00  0.0000000000E+00
                       0.0000000000E+00  3.8292106891E+00  1.1505000000E+01
                       3.8292106891E+00  0.0000000000E+00  1.1505000000E+01
                       3.8189495400E+00  3.8189495400E+00  7.6424419993E+00
                       0.0000000000E+00  0.0000000000E+00  7.6511259814E+00
                       0.0000000000E+00  3.7566346852E+00  1.9253365315E+01
                       3.7566346852E+00  0.0000000000E+00  1.9253365315E+01
                       3.8189495400E+00  3.8189495400E+00  1.5367558001E+01
                       0.0000000000E+00  0.0000000000E+00  1.5358874019E+01
                       0.0000000000E+00  1.1505000000E+01  3.8292106891E+00
                       3.8189495400E+00  7.6424419993E+00  3.8189495400E+00
                       3.8292106891E+00  1.1505000000E+01  0.0000000000E+00
                       0.0000000000E+00  7.6511259814E+00  0.0000000000E+00
                       0.0000000000E+00  1.1505000000E+01  1.1505000000E+01
                       3.8310782969E+00  7.6604104637E+00  1.1505000000E+01
                       3.8310782969E+00  1.1505000000E+01  7.6604104637E+00
                       0.0000000000E+00  7.6655608007E+00  7.6655608007E+00
                       0.0000000000E+00  1.1505000000E+01  1.9180789311E+01
                       3.8189495400E+00  7.6424419993E+00  1.9191050460E+01
                       3.8310782969E+00  1.1505000000E+01  1.5349589536E+01
                       0.0000000000E+00  7.6655608007E+00  1.5344439199E+01
                       0.0000000000E+00  1.9253365315E+01  3.7566346852E+00
                       3.8189495400E+00  1.5367558001E+01  3.8189495400E+00
                       3.7566346852E+00  1.9253365315E+01  0.0000000000E+00
                       0.0000000000E+00  1.5358874019E+01  0.0000000000E+00
                       0.0000000000E+00  1.9180789311E+01  1.1505000000E+01
                       3.8310782969E+00  1.5349589536E+01  1.1505000000E+01
                       3.8189495400E+00  1.9191050460E+01  7.6424419993E+00
                       0.0000000000E+00  1.5344439199E+01  7.6655608007E+00
                       0.0000000000E+00  1.9253365315E+01  1.9253365315E+01
                       3.8189495400E+00  1.5367558001E+01  1.9191050460E+01
                       3.8189495400E+00  1.9191050460E+01  1.5367558001E+01
                       0.0000000000E+00  1.5344439199E+01  1.5344439199E+01
                       7.6424419993E+00  3.8189495400E+00  3.8189495400E+00
                       1.1505000000E+01  0.0000000000E+00  3.8292106891E+00
                       1.1505000000E+01  3.8292106891E+00  0.0000000000E+00
                       7.6511259814E+00  0.0000000000E+00  0.0000000000E+00
                       7.6604104637E+00  3.8310782969E+00  1.1505000000E+01
                       1.1505000000E+01  0.0000000000E+00  1.1505000000E+01
                       1.1505000000E+01  3.8310782969E+00  7.6604104637E+00
                       7.6655608007E+00  0.0000000000E+00  7.6655608007E+00
                       7.6424419993E+00  3.8189495400E+00  1.9191050460E+01
                       1.1505000000E+01  0.0000000000E+00  1.9180789311E+01
                       1.1505000000E+01  3.8310782969E+00  1.5349589536E+01
                       7.6655608007E+00  0.0000000000E+00  1.5344439199E+01
                       7.6604104637E+00  1.1505000000E+01  3.8310782969E+00
                       1.1505000000E+01  7.6604104637E+00  3.8310782969E+00
                       1.1505000000E+01  1.1505000000E+01  0.0000000000E+00
                       7.6655608007E+00  7.6655608007E+00  0.0000000000E+00
                       7.6660383882E+00  1.1505000000E+01  1.1505000000E+01
                       1.1505000000E+01  7.6660383882E+00  1.1505000000E+01
                       1.1505000000E+01  1.1505000000E+01  7.6660383882E+00
                       7.6629944895E+00  7.6629944895E+00  7.6629944895E+00
                       7.6604104637E+00  1.1505000000E+01  1.9178921703E+01
                       1.1505000000E+01  7.6604104637E+00  1.9178921703E+01
                       1.1505000000E+01  1.1505000000E+01  1.5343961612E+01
                       7.6629944895E+00  7.6629944895E+00  1.5347005511E+01
                       7.6424419993E+00  1.9191050460E+01  3.8189495400E+00
                       1.1505000000E+01  1.5349589536E+01  3.8310782969E+00
                       1.1505000000E+01  1.9180789311E+01  0.0000000000E+00
                       7.6655608007E+00  1.5344439199E+01  0.0000000000E+00
                       7.6604104637E+00  1.9178921703E+01  1.1505000000E+01
                       1.1505000000E+01  1.5343961612E+01  1.1505000000E+01
                       1.1505000000E+01  1.9178921703E+01  7.6604104637E+00
                       7.6629944895E+00  1.5347005511E+01  7.6629944895E+00
                       7.6424419993E+00  1.9191050460E+01  1.9191050460E+01
                       1.1505000000E+01  1.5349589536E+01  1.9178921703E+01
                       1.1505000000E+01  1.9178921703E+01  1.5349589536E+01
                       7.6629944895E+00  1.5347005511E+01  1.5347005511E+01
                       1.5367558001E+01  3.8189495400E+00  3.8189495400E+00
                       1.9253365315E+01  0.0000000000E+00  3.7566346852E+00
                       1.9253365315E+01  3.7566346852E+00  0.0000000000E+00
                       1.5358874019E+01  0.0000000000E+00  0.0000000000E+00
                       1.5349589536E+01  3.8310782969E+00  1.1505000000E+01
                       1.9180789311E+01  0.0000000000E+00  1.1505000000E+01
                       1.9191050460E+01  3.8189495400E+00  7.6424419993E+00
                       1.5344439199E+01  0.0000000000E+00  7.6655608007E+00
                       1.5367558001E+01  3.8189495400E+00  1.9191050460E+01
                       1.9253365315E+01  0.0000000000E+00  1.9253365315E+01
                       1.9191050460E+01  3.8189495400E+00  1.5367558001E+01
                       1.5344439199E+01  0.0000000000E+00  1.5344439199E+01
                       1.5349589536E+01  1.1505000000E+01  3.8310782969E+00
                       1.9191050460E+01  7.6424419993E+00  3.8189495400E+00
                       1.9180789311E+01  1.1505000000E+01  0.0000000000E+00
                       1.5344439199E+01  7.6655608007E+00  0.0000000000E+00
                       1.5343961612E+01  1.1505000000E+01  1.1505000000E+01
                       1.9178921703E+01  7.6604104637E+00  1.1505000000E+01
                       1.9178921703E+01  1.1505000000E+01  7.6604104637E+00
                       1.5347005511E+01  7.6629944895E+00  7.6629944895E+00
                       1.5349589536E+01  1.1505000000E+01  1.9178921703E+01
                       1.9191050460E+01  7.6424419993E+00  1.9191050460E+01
                       1.9178921703E+01  1.1505000000E+01  1.5349589536E+01
                       1.5347005511E+01  7.6629944895E+00  1.5347005511E+01
                       1.5367558001E+01  1.9191050460E+01  3.8189495400E+00
                       1.9191050460E+01  1.5367558001E+01  3.8189495400E+00
                       1.9253365315E+01  1.9253365315E+01  0.0000000000E+00
                       1.5344439199E+01  1.5344439199E+01  0.0000000000E+00
                       1.5349589536E+01  1.9178921703E+01  1.1505000000E+01
                       1.9178921703E+01  1.5349589536E+01  1.1505000000E+01
                       1.9191050460E+01  1.9191050460E+01  7.6424419993E+00
                       1.5347005511E+01  1.5347005511E+01  7.6629944895E+00
                       1.5367558001E+01  1.9191050460E+01  1.9191050460E+01
                       1.9191050460E+01  1.5367558001E+01  1.9191050460E+01
                       1.9191050460E+01  1.9191050460E+01  1.5367558001E+01
                       1.5347005511E+01  1.5347005511E+01  1.5347005511E+01
             xred      0.0000000000E+00  1.6326095981E-01  1.6326095981E-01
                       1.6326095981E-01  0.0000000000E+00  1.6326095981E-01
                       1.6326095981E-01  1.6326095981E-01  0.0000000000E+00
                       0.0000000000E+00  1.6641506689E-01  5.0000000000E-01
                       1.6641506689E-01  0.0000000000E+00  5.0000000000E-01
                       1.6596912386E-01  1.6596912386E-01  3.3213568011E-01
                       0.0000000000E+00  0.0000000000E+00  3.3251308046E-01
                       0.0000000000E+00  1.6326095981E-01  8.3673904019E-01
                       1.6326095981E-01  0.0000000000E+00  8.3673904019E-01
                       1.6596912386E-01  1.6596912386E-01  6.6786431989E-01
                       0.0000000000E+00  0.0000000000E+00  6.6748691954E-01
                       0.0000000000E+00  5.0000000000E-01  1.6641506689E-01
                       1.6596912386E-01  3.3213568011E-01  1.6596912386E-01
                       1.6641506689E-01  5.0000000000E-01  0.0000000000E+00
                       0.0000000000E+00  3.3251308046E-01  0.0000000000E+00
                       0.0000000000E+00  5.0000000000E-01  5.0000000000E-01
                       1.6649623194E-01  3.3291657817E-01  5.0000000000E-01
                       1.6649623194E-01  5.0000000000E-01  3.3291657817E-01
                       0.0000000000E+00  3.3314040855E-01  3.3314040855E-01
                       0.0000000000E+00  5.0000000000E-01  8.3358493311E-01
                       1.6596912386E-01  3.3213568011E-01  8.3403087614E-01
                       1.6649623194E-01  5.0000000000E-01  6.6708342183E-01
                       0.0000000000E+00  3.3314040855E-01  6.6685959145E-01
                       0.0000000000E+00  8.3673904019E-01  1.6326095981E-01
                       1.6596912386E-01  6.6786431989E-01  1.6596912386E-01
                       1.6326095981E-01  8.3673904019E-01  0.0000000000E+00
                       0.0000000000E+00  6.6748691954E-01  0.0000000000E+00
                       0.0000000000E+00  8.3358493311E-01  5.0000000000E-01
                       1.6649623194E-01  6.6708342183E-01  5.0000000000E-01
                       1.6596912386E-01  8.3403087614E-01  3.3213568011E-01
                       0.0000000000E+00  6.6685959145E-01  3.3314040855E-01
                       0.0000000000E+00  8.3673904019E-01  8.3673904019E-01
                       1.6596912386E-01  6.6786431989E-01  8.3403087614E-01
                       1.6596912386E-01  8.3403087614E-01  6.6786431989E-01
                       0.0000000000E+00  6.6685959145E-01  6.6685959145E-01
                       3.3213568011E-01  1.6596912386E-01  1.6596912386E-01
                       5.0000000000E-01  0.0000000000E+00  1.6641506689E-01
                       5.0000000000E-01  1.6641506689E-01  0.0000000000E+00
                       3.3251308046E-01  0.0000000000E+00  0.0000000000E+00
                       3.3291657817E-01  1.6649623194E-01  5.0000000000E-01
                       5.0000000000E-01  0.0000000000E+00  5.0000000000E-01
                       5.0000000000E-01  1.6649623194E-01  3.3291657817E-01
                       3.3314040855E-01  0.0000000000E+00  3.3314040855E-01
                       3.3213568011E-01  1.6596912386E-01  8.3403087614E-01
                       5.0000000000E-01  0.0000000000E+00  8.3358493311E-01
                       5.0000000000E-01  1.6649623194E-01  6.6708342183E-01
                       3.3314040855E-01  0.0000000000E+00  6.6685959145E-01
                       3.3291657817E-01  5.0000000000E-01  1.6649623194E-01
                       5.0000000000E-01  3.3291657817E-01  1.6649623194E-01
                       5.0000000000E-01  5.0000000000E-01  0.0000000000E+00
                       3.3314040855E-01  3.3314040855E-01  0.0000000000E+00
                       3.3316116420E-01  5.0000000000E-01  5.0000000000E-01
                       5.0000000000E-01  3.3316116420E-01  5.0000000000E-01
                       5.0000000000E-01  5.0000000000E-01  3.3316116420E-01
                       3.3302887829E-01  3.3302887829E-01  3.3302887829E-01
                       3.3291657817E-01  5.0000000000E-01  8.3350376806E-01
                       5.0000000000E-01  3.3291657817E-01  8.3350376806E-01
                       5.0000000000E-01  5.0000000000E-01  6.6683883580E-01
                       3.3302887829E-01  3.3302887829E-01  6.6697112171E-01
                       3.3213568011E-01  8.3403087614E-01  1.6596912386E-01
                       5.0000000000E-01  6.6708342183E-01  1.6649623194E-01
                       5.0000000000E-01  8.3358493311E-01  0.0000000000E+00
                       3.3314040855E-01  6.6685959145E-01  0.0000000000E+00
                       3.3291657817E-01  8.3350376806E-01  5.0000000000E-01
                       5.0000000000E-01  6.6683883580E-01  5.0000000000E-01
                       5.0000000000E-01  8.3350376806E-01  3.3291657817E-01
                       3.3302887829E-01  6.6697112171E-01  3.3302887829E-01
                       3.3213568011E-01  8.3403087614E-01  8.3403087614E-01
                       5.0000000000E-01  6.6708342183E-01  8.3350376806E-01
                       5.0000000000E-01  8.3350376806E-01  6.6708342183E-01
                       3.3302887829E-01  6.6697112171E-01  6.6697112171E-01
                       6.6786431989E-01  1.6596912386E-01  1.6596912386E-01
                       8.3673904019E-01  0.0000000000E+00  1.6326095981E-01
                       8.3673904019E-01  1.6326095981E-01  0.0000000000E+00
                       6.6748691954E-01  0.0000000000E+00  0.0000000000E+00
                       6.6708342183E-01  1.6649623194E-01  5.0000000000E-01
                       8.3358493311E-01  0.0000000000E+00  5.0000000000E-01
                       8.3403087614E-01  1.6596912386E-01  3.3213568011E-01
                       6.6685959145E-01  0.0000000000E+00  3.3314040855E-01
                       6.6786431989E-01  1.6596912386E-01  8.3403087614E-01
                       8.3673904019E-01  0.0000000000E+00  8.3673904019E-01
                       8.3403087614E-01  1.6596912386E-01  6.6786431989E-01
                       6.6685959145E-01  0.0000000000E+00  6.6685959145E-01
                       6.6708342183E-01  5.0000000000E-01  1.6649623194E-01
                       8.3403087614E-01  3.3213568011E-01  1.6596912386E-01
                       8.3358493311E-01  5.0000000000E-01  0.0000000000E+00
                       6.6685959145E-01  3.3314040855E-01  0.0000000000E+00
                       6.6683883580E-01  5.0000000000E-01  5.0000000000E-01
                       8.3350376806E-01  3.3291657817E-01  5.0000000000E-01
                       8.3350376806E-01  5.0000000000E-01  3.3291657817E-01
                       6.6697112171E-01  3.3302887829E-01  3.3302887829E-01
                       6.6708342183E-01  5.0000000000E-01  8.3350376806E-01
                       8.3403087614E-01  3.3213568011E-01  8.3403087614E-01
                       8.3350376806E-01  5.0000000000E-01  6.6708342183E-01
                       6.6697112171E-01  3.3302887829E-01  6.6697112171E-01
                       6.6786431989E-01  8.3403087614E-01  1.6596912386E-01
                       8.3403087614E-01  6.6786431989E-01  1.6596912386E-01
                       8.3673904019E-01  8.3673904019E-01  0.0000000000E+00
                       6.6685959145E-01  6.6685959145E-01  0.0000000000E+00
                       6.6708342183E-01  8.3350376806E-01  5.0000000000E-01
                       8.3350376806E-01  6.6708342183E-01  5.0000000000E-01
                       8.3403087614E-01  8.3403087614E-01  3.3213568011E-01
                       6.6697112171E-01  6.6697112171E-01  3.3302887829E-01
                       6.6786431989E-01  8.3403087614E-01  8.3403087614E-01
                       8.3403087614E-01  6.6786431989E-01  8.3403087614E-01
                       8.3403087614E-01  8.3403087614E-01  6.6786431989E-01
                       6.6697112171E-01  6.6697112171E-01  6.6697112171E-01
            znucl       79.00000

================================================================================

 chkinp: Checking input parameters for consistency.

================================================================================
== DATASET  1 ==================================================================

 Exchange-correlation functional for the present dataset will be:
  LDA: new Teter (4/93) with spin-polarized option - ixc=1
 Citation for XC functional:
  S. Goedecker, M. Teter, J. Huetter, PRB 54, 1703 (1996)
 
 Real(R)+Recip(G) space primitive vectors, cartesian coordinates (Bohr,Bohr^-1):
 R(1)= 23.0100000  0.0000000  0.0000000  G(1)=  0.0434594  0.0000000  0.0000000
 R(2)=  0.0000000 23.0100000  0.0000000  G(2)=  0.0000000  0.0434594  0.0000000
 R(3)=  0.0000000  0.0000000 23.0100000  G(3)=  0.0000000  0.0000000  0.0434594
 Unit cell volume ucvol=  1.2182877E+04 bohr^3
 Angles (23,13,12)=  9.00000000E+01  9.00000000E+01  9.00000000E+01 degrees

 getcut: wavevector=  0.0000  0.0000  0.0000  ngfft=  96  96  96
         ecut(hartree)=     15.000   => boxcut(ratio)=   2.39301

 getcut : COMMENT -
  Note that boxcut > 2.2 ; recall that boxcut=Gcut(box)/Gcut(sphere) = 2
  is sufficient for exact treatment of convolution.
  Such a large boxcut is a waste : you could raise ecut
  e.g. ecut=   21.474299 Hartrees makes boxcut=2


--- Pseudopotential description ------------------------------------------------
- pspini: atom type   1  psp file is PseudosTM_pwteter/79au.pspnc
- pspatm: opening atomic psp file    PseudosTM_pwteter/79au.pspnc
-  Troullier-Martins psp for element  Au        Thu Oct 27 17:58:22 EDT 1994
- 79.00000  11.00000    940714                znucl, zion, pspdat
    1    1    2    0      2001   0.00000      pspcod,pspxc,lmax,lloc,mmax,r2well
    0   7.710  12.096    0   2.0761953        l,e99.0,e99.9,nproj,rcpsp
   0.00000000   0.00000000   0.00000000   0.00000000     rms, ekb1, ekb2, epsatm
    1   2.329   4.015    1   3.0973349        l,e99.0,e99.9,nproj,rcpsp
   0.00000000   0.00000000   0.00000000   0.00000000     rms, ekb1, ekb2, epsatm
    2  13.861  18.519    1   1.9261744        l,e99.0,e99.9,nproj,rcpsp
   0.00000000   0.00000000   0.00000000   0.00000000     rms, ekb1, ekb2, epsatm
    1.84225747565994    1.72828030557005    9.43000986633162   rchrg,fchrg,qchrg
 pspatm : epsatm=   90.81237674
         --- l  ekb(1:nproj) -->
             1    0.637337
             2   -5.866564
 pspatm: atomic psp has been read  and splines computed

   1.14368199E+07                                ecore*ucvol(ha*bohr**3)
--------------------------------------------------------------------------------

P newkpt: treating    648 bands with npw=     155 for ikpt=   1 by node    0
 
 setup2: Arith. and geom. avg. npw (full set) are     309.000     309.000

================================================================================

     iter   Etot(hartree)      deltaE(h)  residm     vres2
 ETOT  1  -4252.9200937310    -4.253E+03 3.143E-02 5.924E+04
 ETOT  2  -4295.9682389586    -4.305E+01 3.791E-03 9.750E+03

 Cartesian components of stress tensor (hartree/bohr^3)
  sigma(1 1)=  1.39833900E-02  sigma(3 2)=  0.00000000E+00
  sigma(2 2)=  1.39833900E-02  sigma(3 1)=  0.00000000E+00
  sigma(3 3)=  1.39833900E-02  sigma(2 1)=  0.00000000E+00
 

 scprqt:  WARNING -
  nstep=    2 was not enough SCF cycles to converge;
  maximum energy difference=  4.305E+01 exceeds toldfe=  1.000E-07

================================================================================

 ----iterations are completed or convergence reached----

 Mean square residual over all n,k,spin=   8.2871E-05; max=  3.7915E-03
   0.0000  0.0000  0.0000    1  3.79148E-03 kpt; spin; max resid(k); each band:
  9.92E-05 6.91E-05 8.77E-05 1.29E-04 3.79E-05 7.91E-05 7.57E-05 5.87E-05
  8.14E-05 4.90E-05 3.10E-05 4.22E-05 7.03E-05 1.83E-05 1.50E-05 6.42E-05
  1.39E-04 1.85E-04 8.61E-05 4.12E-06 3.34E-06 3.94E-06 3.81E-06 5.08E-06
  9.11E-06 8.86E-06 1.50E-05 8.75E-07 1.01E-06 1.60E-06 1.26E-06 2.05E-06
  4.80E-06 1.64E-06 7.05E-07 8.71E-07 6.80E-06 6.24E-06 7.60E-06 1.33E-05
  3.22E-06 3.49E-06 3.87E-06 4.43E-06 4.24E-06 3.25E-06 4.06E-06 5.96E-06
  7.14E-06 8.74E-06 8.07E-06 6.52E-06 3.39E-06 5.51E-06 1.59E-05 1.67E-05
  1.39E-05 1.40E-05 2.52E-05 8.02E-05 6.97E-06 8.89E-06 1.11E-05 7.14E-06
  7.35E-06 8.23E-06 1.24E-05 1.52E-05 2.34E-05 1.39E-05 1.50E-05 1.74E-05
  9.74E-06 2.02E-05 2.33E-05 9.17E-06 1.79E-05 2.33E-05 1.81E-05 2.82E-05
  2.17E-05 2.22E-05 2.12E-05 1.19E-05 2.60E-05 3.38E-05 5.07E-06 3.11E-06
  5.83E-06 1.98E-05 6.90E-06 9.65E-06 3.89E-06 6.87E-06 7.76E-06 3.34E-06
  5.61E-06 4.86E-06 6.33E-06 7.07E-07 7.76E-07 7.61E-07 1.63E-06 1.01E-06
  2.57E-06 2.14E-06 2.36E-06 1.65E-06 6.95E-06 4.41E-06 5.83E-06 1.59E-05
  1.30E-05 3.87E-06 4.33E-06 1.39E-06 3.52E-06 2.58E-06 4.98E-06 3.34E-06
  3.25E-06 4.47E-06 1.90E-06 2.42E-06 3.60E-06 5.28E-06 4.68E-06 4.35E-06
  4.78E-06 5.34E-06 3.38E-06 2.31E-06 3.79E-06 3.99E-06 4.80E-06 3.17E-06
  3.40E-06 2.30E-06 4.54E-06 2.81E-06 4.07E-06 5.53E-06 2.41E-06 4.30E-06
  4.33E-06 7.58E-06 3.59E-06 2.25E-06 4.86E-06 1.43E-05 1.65E-05 1.37E-05
  1.14E-05 1.40E-05 1.25E-05 1.59E-05 7.71E-06 1.23E-05 1.22E-05 9.86E-06
  1.50E-05 1.05E-05 4.13E-05 3.07E-05 4.21E-05 2.76E-06 3.43E-06 2.08E-06
  3.04E-06 2.42E-06 2.90E-06 3.31E-06 4.52E-06 5.30E-06 6.31E-06 5.94E-06
  2.96E-06 1.32E-05 7.43E-06 5.92E-06 5.43E-06 2.86E-06 7.44E-06 4.70E-06
  9.34E-06 6.87E-06 5.34E-06 9.13E-06 8.05E-06 4.73E-06 4.01E-06 6.04E-06
  7.05E-06 3.48E-06 7.98E-06 8.20E-06 5.28E-06 6.51E-06 1.20E-05 1.02E-05
  7.91E-06 9.30E-06 1.05E-05 1.28E-05 2.00E-05 1.00E-05 4.83E-06 6.70E-06
  1.05E-05 1.24E-05 1.11E-05 1.13E-05 4.69E-06 7.76E-06 7.63E-06 7.55E-06
  5.26E-05 5.24E-05 7.78E-05 3.75E-05 2.72E-05 3.30E-05 2.27E-05 6.09E-05
  1.11E-04 4.49E-05 5.10E-05 8.77E-05 9.76E-05 8.16E-06 8.58E-06 1.11E-05
  1.57E-05 9.95E-06 9.08E-06 9.67E-06 1.70E-05 1.26E-05 1.83E-05 8.47E-06
  1.32E-05 5.74E-06 1.14E-05 1.38E-05 1.12E-05 2.15E-05 2.07E-05 1.39E-05
  1.85E-05 2.19E-05 1.89E-05 1.96E-05 1.74E-05 6.36E-06 7.56E-06 7.44E-06
  8.09E-06 7.79E-06 7.47E-06 5.71E-06 7.21E-06 6.04E-06 6.42E-06 7.45E-06
  6.94E-06 6.65E-06 6.08E-06 5.34E-06 4.80E-06 4.86E-06 1.43E-04 1.18E-04
  6.25E-05 8.47E-05 3.05E-05 2.84E-05 2.55E-05 2.54E-05 2.88E-05 2.69E-05
  2.34E-05 2.51E-05 2.35E-05 3.66E-05 3.20E-05 1.63E-05 2.83E-05 3.56E-05
  2.44E-05 2.16E-05 2.23E-05 4.08E-05 5.15E-05 2.77E-05 3.07E-05 3.09E-05
  2.33E-05 2.80E-05 2.77E-05 3.11E-05 2.23E-05 1.36E-05 1.08E-05 1.43E-05
  3.21E-05 1.70E-05 9.31E-06 2.01E-05 2.94E-05 3.95E-05 2.61E-05 6.58E-06
  5.31E-06 8.88E-06 1.01E-05 1.16E-05 1.48E-05 5.82E-06 5.42E-06 5.01E-06
  1.12E-05 6.78E-06 5.77E-06 6.65E-06 2.29E-04 1.52E-04 1.96E-04 1.33E-04
  7.06E-05 6.35E-05 2.83E-05 2.19E-05 3.21E-05 1.73E-05 1.51E-05 1.84E-05
  2.49E-05 1.32E-05 1.48E-05 1.68E-05 1.19E-05 1.39E-05 1.36E-05 2.20E-05
  8.27E-06 1.02E-05 1.19E-05 1.51E-05 1.72E-05 1.16E-05 5.96E-06 1.30E-05
  1.50E-05 3.88E-05 9.59E-06 2.83E-05 1.58E-05 1.95E-05 1.79E-05 1.81E-05
  1.13E-05 9.06E-06 9.96E-06 1.26E-05 8.22E-06 1.61E-05 1.04E-05 1.16E-05
  2.27E-05 1.71E-05 9.06E-06 1.00E-05 1.31E-05 1.35E-05 4.77E-06 2.82E-06
  9.82E-06 6.88E-06 9.86E-05 5.11E-05 3.37E-05 1.45E-05 1.46E-05 4.88E-06
  8.08E-06 1.38E-05 1.21E-05 5.88E-06 6.86E-06 7.06E-06 5.25E-06 6.98E-06
  1.06E-05 5.03E-06 5.24E-06 8.25E-06 8.34E-06 1.16E-05 1.12E-05 2.24E-05
  2.16E-05 2.46E-05 1.18E-05 1.72E-05 9.57E-06 1.92E-05 1.65E-05 1.36E-05
  1.92E-05 1.99E-05 1.71E-05 2.22E-05 2.89E-05 2.28E-05 2.51E-05 1.11E-05
  1.37E-05 1.73E-05 2.36E-05 1.54E-05 1.87E-05 2.23E-05 2.02E-05 2.24E-05
  1.66E-05 2.57E-05 1.09E-05 1.33E-05 6.47E-06 1.24E-05 9.08E-06 6.49E-06
  1.05E-05 1.28E-05 1.62E-05 2.46E-05 2.19E-05 1.41E-05 1.09E-05 2.31E-05
  1.22E-05 2.29E-05 2.25E-05 2.35E-05 1.36E-05 9.64E-06 1.05E-05 1.40E-05
  6.34E-06 3.60E-06 6.03E-06 6.81E-06 8.11E-06 7.37E-06 8.09E-06 1.05E-05
  1.14E-05 1.75E-05 2.05E-05 1.41E-05 1.17E-05 1.18E-05 9.86E-06 1.35E-05
  2.03E-05 1.54E-05 1.63E-05 8.33E-06 8.12E-06 1.18E-05 1.05E-05 9.03E-06
  6.37E-06 1.12E-05 7.69E-06 1.28E-05 1.27E-05 5.19E-06 9.08E-06 9.40E-06
  7.40E-06 6.08E-06 6.90E-06 7.01E-06 6.88E-06 6.02E-06 4.59E-05 3.90E-05
  3.05E-05 2.62E-05 2.02E-05 2.03E-05 2.16E-05 1.84E-05 1.55E-05 3.97E-05
  2.18E-05 2.20E-05 2.00E-05 1.66E-05 2.06E-05 1.44E-05 2.38E-05 1.86E-05
  1.29E-05 1.02E-05 1.49E-05 1.64E-05 1.12E-05 1.91E-05 2.83E-05 3.20E-05
  2.85E-05 2.85E-05 3.78E-05 4.45E-05 1.41E-05 2.19E-05 4.05E-05 4.16E-05
  3.35E-05 6.51E-05 6.74E-05 1.61E-05 1.69E-05 1.28E-05 1.90E-05 1.69E-05
  9.97E-06 6.76E-06 8.85E-06 1.12E-05 7.77E-06 9.02E-06 2.21E-05 1.91E-05
  1.37E-05 1.74E-05 1.09E-05 1.06E-05 1.79E-04 1.36E-04 1.42E-04 9.10E-05
  1.55E-04 5.48E-05 1.43E-04 7.94E-05 2.55E-04 3.17E-04 2.25E-05 2.77E-05
  3.21E-05 4.62E-05 1.52E-04 3.70E-05 4.62E-05 3.46E-05 5.08E-05 7.89E-05
  1.17E-04 1.22E-04 2.07E-04 8.63E-05 1.35E-04 4.42E-05 2.62E-05 2.68E-05
  2.43E-04 3.31E-04 4.92E-04 5.50E-05 3.65E-05 7.14E-05 5.73E-05 6.95E-05
  2.07E-05 2.95E-05 3.07E-05 4.72E-05 4.01E-05 5.27E-05 5.38E-05 3.14E-05
  3.10E-05 7.28E-05 7.42E-05 7.90E-05 6.05E-05 1.01E-04 9.00E-05 1.07E-04
  5.47E-05 5.69E-05 1.52E-03 1.18E-03 1.18E-03 1.26E-03 5.90E-04 1.09E-03
  5.70E-04 5.06E-04 3.48E-04 2.86E-04 4.00E-04 2.45E-04 1.08E-04 2.25E-04
  1.84E-04 5.16E-04 6.66E-04 4.98E-04 7.32E-04 1.03E-03 1.41E-03 1.41E-03
  1.60E-03 1.40E-03 3.79E-03 3.46E-04 2.71E-04 5.09E-04 6.35E-04 2.53E-04
  2.00E-04 4.25E-04 4.49E-04 8.20E-04 1.34E-03 2.03E-03 9.64E-04 1.88E-04
  1.77E-04 1.77E-04 1.27E-04 2.45E-04 1.78E-04 2.68E-04 2.25E-04 2.41E-04
  2.24E-04 2.63E-04 4.83E-04 6.88E-04 5.51E-04 6.35E-04 6.65E-04 1.97E-03
 reduced coordinates (array xred) for  107 atoms
       0.000000000000      0.163260959810      0.163260959810
       0.163260959810      0.000000000000      0.163260959810
       0.163260959810      0.163260959810      0.000000000000
       0.000000000000      0.166415066890      0.500000000000
       0.166415066890      0.000000000000      0.500000000000
       0.165969123860      0.165969123860      0.332135680110
       0.000000000000      0.000000000000      0.332513080460
       0.000000000000      0.163260959810      0.836739040190
       0.163260959810      0.000000000000      0.836739040190
       0.165969123860      0.165969123860      0.667864319890
       0.000000000000      0.000000000000      0.667486919540
       0.000000000000      0.500000000000      0.166415066890
       0.165969123860      0.332135680110      0.165969123860
       0.166415066890      0.500000000000      0.000000000000
       0.000000000000      0.332513080460      0.000000000000
       0.000000000000      0.500000000000      0.500000000000
       0.166496231940      0.332916578170      0.500000000000
       0.166496231940      0.500000000000      0.332916578170
       0.000000000000      0.333140408550      0.333140408550
       0.000000000000      0.500000000000      0.833584933110
       0.165969123860      0.332135680110      0.834030876140
       0.166496231940      0.500000000000      0.667083421830
       0.000000000000      0.333140408550      0.666859591450
       0.000000000000      0.836739040190      0.163260959810
       0.165969123860      0.667864319890      0.165969123860
       0.163260959810      0.836739040190      0.000000000000
       0.000000000000      0.667486919540      0.000000000000
       0.000000000000      0.833584933110      0.500000000000
       0.166496231940      0.667083421830      0.500000000000
       0.165969123860      0.834030876140      0.332135680110
       0.000000000000      0.666859591450      0.333140408550
       0.000000000000      0.836739040190      0.836739040190
       0.165969123860      0.667864319890      0.834030876140
       0.165969123860      0.834030876140      0.667864319890
       0.000000000000      0.666859591450      0.666859591450
       0.332135680110      0.165969123860      0.165969123860
       0.500000000000      0.000000000000      0.166415066890
       0.500000000000      0.166415066890      0.000000000000
       0.332513080460      0.000000000000      0.000000000000
       0.332916578170      0.166496231940      0.500000000000
       0.500000000000      0.000000000000      0.500000000000
       0.500000000000      0.166496231940      0.332916578170
       0.333140408550      0.000000000000      0.333140408550
       0.332135680110      0.165969123860      0.834030876140
       0.500000000000      0.000000000000      0.833584933110
       0.500000000000      0.166496231940      0.667083421830
       0.333140408550      0.000000000000      0.666859591450
       0.332916578170      0.500000000000      0.166496231940
       0.500000000000      0.332916578170      0.166496231940
       0.500000000000      0.500000000000      0.000000000000
       0.333140408550      0.333140408550      0.000000000000
       0.333161164200      0.500000000000      0.500000000000
       0.500000000000      0.333161164200      0.500000000000
       0.500000000000      0.500000000000      0.333161164200
       0.333028878290      0.333028878290      0.333028878290
       0.332916578170      0.500000000000      0.833503768060
       0.500000000000      0.332916578170      0.833503768060
       0.500000000000      0.500000000000      0.666838835800
       0.333028878290      0.333028878290      0.666971121710
       0.332135680110      0.834030876140      0.165969123860
       0.500000000000      0.667083421830      0.166496231940
       0.500000000000      0.833584933110      0.000000000000
       0.333140408550      0.666859591450      0.000000000000
       0.332916578170      0.833503768060      0.500000000000
       0.500000000000      0.666838835800      0.500000000000
       0.500000000000      0.833503768060      0.332916578170
       0.333028878290      0.666971121710      0.333028878290
       0.332135680110      0.834030876140      0.834030876140
       0.500000000000      0.667083421830      0.833503768060
       0.500000000000      0.833503768060      0.667083421830
       0.333028878290      0.666971121710      0.666971121710
       0.667864319890      0.165969123860      0.165969123860
       0.836739040190      0.000000000000      0.163260959810
       0.836739040190      0.163260959810      0.000000000000
       0.667486919540      0.000000000000      0.000000000000
       0.667083421830      0.166496231940      0.500000000000
       0.833584933110      0.000000000000      0.500000000000
       0.834030876140      0.165969123860      0.332135680110
       0.666859591450      0.000000000000      0.333140408550
       0.667864319890      0.165969123860      0.834030876140
       0.836739040190      0.000000000000      0.836739040190
       0.834030876140      0.165969123860      0.667864319890
       0.666859591450      0.000000000000      0.666859591450
       0.667083421830      0.500000000000      0.166496231940
       0.834030876140      0.332135680110      0.165969123860
       0.833584933110      0.500000000000      0.000000000000
       0.666859591450      0.333140408550      0.000000000000
       0.666838835800      0.500000000000      0.500000000000
       0.833503768060      0.332916578170      0.500000000000
       0.833503768060      0.500000000000      0.332916578170
       0.666971121710      0.333028878290      0.333028878290
       0.667083421830      0.500000000000      0.833503768060
       0.834030876140      0.332135680110      0.834030876140
       0.833503768060      0.500000000000      0.667083421830
       0.666971121710      0.333028878290      0.666971121710
       0.667864319890      0.834030876140      0.165969123860
       0.834030876140      0.667864319890      0.165969123860
       0.836739040190      0.836739040190      0.000000000000
       0.666859591450      0.666859591450      0.000000000000
       0.667083421830      0.833503768060      0.500000000000
       0.833503768060      0.667083421830      0.500000000000
       0.834030876140      0.834030876140      0.332135680110
       0.666971121710      0.666971121710      0.333028878290
       0.667864319890      0.834030876140      0.834030876140
       0.834030876140      0.667864319890      0.834030876140
       0.834030876140      0.834030876140      0.667864319890
       0.666971121710      0.666971121710      0.666971121710
 rms dE/dt=  2.3555E-02; max dE/dt=  5.7214E-02; dE/dt below (all hartree)
    1       0.000000000000     -0.057213907839     -0.057213907839
    2      -0.057213907839      0.000000000000     -0.057213907839
    3      -0.057213907839     -0.057213907839      0.000000000000
    4       0.000000000000     -0.008823462181      0.000000000000
    5      -0.008823462181      0.000000000000      0.000000000000
    6       0.012596721615      0.012596721615      0.042565165311
    7       0.000000000000      0.000000000000     -0.025123764895
    8       0.000000000000     -0.057213907839      0.057213907839
    9      -0.057213907839      0.000000000000      0.057213907839
   10       0.012596721615      0.012596721615     -0.042565165311
   11       0.000000000000      0.000000000000      0.025123764895
   12       0.000000000000      0.000000000000     -0.008823462181
   13       0.012596721615      0.042565165311      0.012596721615
   14      -0.008823462181      0.000000000000      0.000000000000
   15       0.000000000000     -0.025123764895      0.000000000000
   16       0.000000000000      0.000000000000      0.000000000000
   17      -0.019045866302      0.018474802770      0.000000000000
   18      -0.019045866302      0.000000000000      0.018474802770
   19       0.000000000000     -0.029038124344     -0.029038124344
   20       0.000000000000      0.000000000000      0.008823462181
   21       0.012596721615      0.042565165311     -0.012596721615
   22      -0.019045866302      0.000000000000     -0.018474802770
   23       0.000000000000     -0.029038124344      0.029038124344
   24       0.000000000000      0.057213907839     -0.057213907839
   25       0.012596721615     -0.042565165311      0.012596721615
   26      -0.057213907839      0.057213907839      0.000000000000
   27       0.000000000000      0.025123764895      0.000000000000
   28       0.000000000000      0.008823462181      0.000000000000
   29      -0.019045866302     -0.018474802770      0.000000000000
   30       0.012596721615     -0.012596721615      0.042565165311
   31       0.000000000000      0.029038124344     -0.029038124344
   32       0.000000000000      0.057213907839      0.057213907839
   33       0.012596721615     -0.042565165311     -0.012596721615
   34       0.012596721615     -0.012596721615     -0.042565165311
   35       0.000000000000      0.029038124344      0.029038124344
   36       0.042565165311      0.012596721615      0.012596721615
   37       0.000000000000      0.000000000000     -0.008823462181
   38       0.000000000000     -0.008823462181      0.000000000000
   39      -0.025123764895      0.000000000000      0.000000000000
   40       0.018474802770     -0.019045866302      0.000000000000
   41       0.000000000000      0.000000000000      0.000000000000
   42       0.000000000000     -0.019045866302      0.018474802770
   43      -0.029038124344      0.000000000000     -0.029038124344
   44       0.042565165311      0.012596721615     -0.012596721615
   45       0.000000000000      0.000000000000      0.008823462181
   46       0.000000000000     -0.019045866302     -0.018474802770
   47      -0.029038124344      0.000000000000      0.029038124344
   48       0.018474802770      0.000000000000     -0.019045866302
   49       0.000000000000      0.018474802770     -0.019045866302
   50       0.000000000000      0.000000000000      0.000000000000
   51      -0.029038124344     -0.029038124344      0.000000000000
   52       0.004939649695      0.000000000000      0.000000000000
   53       0.000000000000      0.004939649695      0.000000000000
   54       0.000000000000      0.000000000000      0.004939649695
   55      -0.016370066041     -0.016370066041     -0.016370066041
   56       0.018474802770      0.000000000000      0.019045866302
   57       0.000000000000      0.018474802770      0.019045866302
   58       0.000000000000      0.000000000000     -0.004939649695
   59      -0.016370066041     -0.016370066041      0.016370066041
   60       0.042565165311     -0.012596721615      0.012596721615
   61       0.000000000000     -0.018474802770     -0.019045866302
   62       0.000000000000      0.008823462181      0.000000000000
   63      -0.029038124344      0.029038124344      0.000000000000
   64       0.018474802770      0.019045866302      0.000000000000
   65       0.000000000000     -0.004939649695      0.000000000000
   66       0.000000000000      0.019045866302      0.018474802770
   67      -0.016370066041      0.016370066041     -0.016370066041
   68       0.042565165311     -0.012596721615     -0.012596721615
   69       0.000000000000     -0.018474802770      0.019045866302
   70       0.000000000000      0.019045866302     -0.018474802770
   71      -0.016370066041      0.016370066041      0.016370066041
   72      -0.042565165311      0.012596721615      0.012596721615
   73       0.057213907839      0.000000000000     -0.057213907839
   74       0.057213907839     -0.057213907839      0.000000000000
   75       0.025123764895      0.000000000000      0.000000000000
   76      -0.018474802770     -0.019045866302      0.000000000000
   77       0.008823462181      0.000000000000      0.000000000000
   78      -0.012596721615      0.012596721615      0.042565165311
   79       0.029038124344      0.000000000000     -0.029038124344
   80      -0.042565165311      0.012596721615     -0.012596721615
   81       0.057213907839      0.000000000000      0.057213907839
   82      -0.012596721615      0.012596721615     -0.042565165311
   83       0.029038124344      0.000000000000      0.029038124344
   84      -0.018474802770      0.000000000000     -0.019045866302
   85      -0.012596721615      0.042565165311      0.012596721615
   86       0.008823462181      0.000000000000      0.000000000000
   87       0.029038124344     -0.029038124344      0.000000000000
   88      -0.004939649695      0.000000000000      0.000000000000
   89       0.019045866302      0.018474802770      0.000000000000
   90       0.019045866302      0.000000000000      0.018474802770
   91       0.016370066041     -0.016370066041     -0.016370066041
   92      -0.018474802770      0.000000000000      0.019045866302
   93      -0.012596721615      0.042565165311     -0.012596721615
   94       0.019045866302      0.000000000000     -0.018474802770
   95       0.016370066041     -0.016370066041      0.016370066041
   96      -0.042565165311     -0.012596721615      0.012596721615
   97      -0.012596721615     -0.042565165311      0.012596721615
   98       0.057213907839      0.057213907839      0.000000000000
   99       0.029038124344      0.029038124344      0.000000000000
  100      -0.018474802770      0.019045866302      0.000000000000
  101       0.019045866302     -0.018474802770      0.000000000000
  102      -0.012596721615     -0.012596721615      0.042565165311
  103       0.016370066041      0.016370066041     -0.016370066041
  104      -0.042565165311     -0.012596721615     -0.012596721615
  105      -0.012596721615     -0.042565165311     -0.012596721615
  106      -0.012596721615     -0.012596721615     -0.042565165311
  107       0.016370066041      0.016370066041      0.016370066041
 
 cartesian coordinates (angstrom) at end:
    1      0.00000000000000     1.98792545642138     1.98792545642138
    2      1.98792545642138     0.00000000000000     1.98792545642138
    3      1.98792545642138     1.98792545642138     0.00000000000000
    4      0.00000000000000     2.02633102358151     6.08818378482795
    5      2.02633102358151     0.00000000000000     6.08818378482795
    6      2.02090105733311     2.02090105733311     4.04420612401701
    7      0.00000000000000     0.00000000000000     4.04880148939953
    8      0.00000000000000     1.98792545642138    10.18844211323452
    9      1.98792545642138     0.00000000000000    10.18844211323452
   10      2.02090105733311     2.02090105733311     8.13216144563889
   11      0.00000000000000     0.00000000000000     8.12756608025637
   12      0.00000000000000     6.08818378482795     2.02633102358151
   13      2.02090105733311     4.04420612401701     2.02090105733311
   14      2.02633102358151     6.08818378482795     0.00000000000000
   15      0.00000000000000     4.04880148939953     0.00000000000000
   16      0.00000000000000     6.08818378482795     6.08818378482795
   17      2.02731931906412     4.05371462583000     6.08818378482795
   18      2.02731931906412     6.08818378482795     4.05371462583000
   19      0.00000000000000     4.05644006681014     4.05644006681014
   20      0.00000000000000     6.08818378482795    10.15003654607439
   21      2.02090105733311     4.04420612401701    10.15546651232279
   22      2.02731931906412     6.08818378482795     8.12265294382590
   23      0.00000000000000     4.05644006681014     8.11992750284576
   24      0.00000000000000    10.18844211323452     1.98792545642138
   25      2.02090105733311     8.13216144563889     2.02090105733311
   26      1.98792545642138    10.18844211323452     0.00000000000000
   27      0.00000000000000     8.12756608025637     0.00000000000000
   28      0.00000000000000    10.15003654607439     6.08818378482795
   29      2.02731931906412     8.12265294382590     6.08818378482795
   30      2.02090105733311    10.15546651232279     4.04420612401701
   31      0.00000000000000     8.11992750284576     4.05644006681014
   32      0.00000000000000    10.18844211323452    10.18844211323452
   33      2.02090105733311     8.13216144563889    10.15546651232279
   34      2.02090105733311    10.15546651232279     8.13216144563889
   35      0.00000000000000     8.11992750284576     8.11992750284576
   36      4.04420612401701     2.02090105733311     2.02090105733311
   37      6.08818378482795     0.00000000000000     2.02633102358151
   38      6.08818378482795     2.02633102358151     0.00000000000000
   39      4.04880148939953     0.00000000000000     0.00000000000000
   40      4.05371462583000     2.02731931906412     6.08818378482795
   41      6.08818378482795     0.00000000000000     6.08818378482795
   42      6.08818378482795     2.02731931906412     4.05371462583000
   43      4.05644006681014     0.00000000000000     4.05644006681014
   44      4.04420612401701     2.02090105733311    10.15546651232279
   45      6.08818378482795     0.00000000000000    10.15003654607439
   46      6.08818378482795     2.02731931906412     8.12265294382590
   47      4.05644006681014     0.00000000000000     8.11992750284576
   48      4.05371462583000     6.08818378482795     2.02731931906412
   49      6.08818378482795     4.05371462583000     2.02731931906412
   50      6.08818378482795     6.08818378482795     0.00000000000000
   51      4.05644006681014     4.05644006681014     0.00000000000000
   52      4.05669279523369     6.08818378482795     6.08818378482795
   53      6.08818378482795     4.05669279523369     6.08818378482795
   54      6.08818378482795     6.08818378482795     4.05669279523369
   55      4.05508203336924     4.05508203336924     4.05508203336924
   56      4.05371462583000     6.08818378482795    10.14904825059178
   57      6.08818378482795     4.05371462583000    10.14904825059178
   58      6.08818378482795     6.08818378482795     8.11967477442222
   59      4.05508203336924     4.05508203336924     8.12128553628666
   60      4.04420612401701    10.15546651232279     2.02090105733311
   61      6.08818378482795     8.12265294382590     2.02731931906412
   62      6.08818378482795    10.15003654607439     0.00000000000000
   63      4.05644006681014     8.11992750284576     0.00000000000000
   64      4.05371462583000    10.14904825059178     6.08818378482795
   65      6.08818378482795     8.11967477442222     6.08818378482795
   66      6.08818378482795    10.14904825059178     4.05371462583000
   67      4.05508203336924     8.12128553628666     4.05508203336924
   68      4.04420612401701    10.15546651232279    10.15546651232279
   69      6.08818378482795     8.12265294382590    10.14904825059178
   70      6.08818378482795    10.14904825059178     8.12265294382590
   71      4.05508203336924     8.12128553628666     8.12128553628666
   72      8.13216144563889     2.02090105733311     2.02090105733311
   73     10.18844211323452     0.00000000000000     1.98792545642138
   74     10.18844211323452     1.98792545642138     0.00000000000000
   75      8.12756608025637     0.00000000000000     0.00000000000000
   76      8.12265294382590     2.02731931906412     6.08818378482795
   77     10.15003654607439     0.00000000000000     6.08818378482795
   78     10.15546651232279     2.02090105733311     4.04420612401701
   79      8.11992750284576     0.00000000000000     4.05644006681014
   80      8.13216144563889     2.02090105733311    10.15546651232279
   81     10.18844211323452     0.00000000000000    10.18844211323452
   82     10.15546651232279     2.02090105733311     8.13216144563889
   83      8.11992750284576     0.00000000000000     8.11992750284576
   84      8.12265294382590     6.08818378482795     2.02731931906412
   85     10.15546651232279     4.04420612401701     2.02090105733311
   86     10.15003654607439     6.08818378482795     0.00000000000000
   87      8.11992750284576     4.05644006681014     0.00000000000000
   88      8.11967477442222     6.08818378482795     6.08818378482795
   89     10.14904825059178     4.05371462583000     6.08818378482795
   90     10.14904825059178     6.08818378482795     4.05371462583000
   91      8.12128553628666     4.05508203336924     4.05508203336924
   92      8.12265294382590     6.08818378482795    10.14904825059178
   93     10.15546651232279     4.04420612401701    10.15546651232279
   94     10.14904825059178     6.08818378482795     8.12265294382590
   95      8.12128553628666     4.05508203336924     8.12128553628666
   96      8.13216144563889    10.15546651232279     2.02090105733311
   97     10.15546651232279     8.13216144563889     2.02090105733311
   98     10.18844211323452    10.18844211323452     0.00000000000000
   99      8.11992750284576     8.11992750284576     0.00000000000000
  100      8.12265294382590    10.14904825059178     6.08818378482795
  101     10.14904825059178     8.12265294382590     6.08818378482795
  102     10.15546651232279    10.15546651232279     4.04420612401701
  103      8.12128553628666     8.12128553628666     4.05508203336924
  104      8.13216144563889    10.15546651232279    10.15546651232279
  105     10.15546651232279     8.13216144563889    10.15546651232279
  106     10.15546651232279    10.15546651232279     8.13216144563889
  107      8.12128553628666     8.12128553628666     8.12128553628666

 cartesian forces (hartree/bohr) at end:
    1      0.00000000000000     0.00248648013207     0.00248648013207
    2      0.00248648013207     0.00000000000000     0.00248648013207
    3      0.00248648013207     0.00248648013207     0.00000000000000
    4      0.00000000000000     0.00038346206783     0.00000000000000
    5      0.00038346206783     0.00000000000000     0.00000000000000
    6     -0.00054744552869    -0.00054744552869    -0.00184985507652
    7      0.00000000000000     0.00000000000000     0.00109186288115
    8      0.00000000000000     0.00248648013207    -0.00248648013207
    9      0.00248648013207     0.00000000000000    -0.00248648013207
   10     -0.00054744552869    -0.00054744552869     0.00184985507652
   11      0.00000000000000     0.00000000000000    -0.00109186288115
   12      0.00000000000000     0.00000000000000     0.00038346206783
   13     -0.00054744552869    -0.00184985507652    -0.00054744552869
   14      0.00038346206783     0.00000000000000     0.00000000000000
   15      0.00000000000000     0.00109186288115     0.00000000000000
   16      0.00000000000000     0.00000000000000     0.00000000000000
   17      0.00082772126474    -0.00080290320599     0.00000000000000
   18      0.00082772126474     0.00000000000000    -0.00080290320599
   19      0.00000000000000     0.00126197845912     0.00126197845912
   20      0.00000000000000     0.00000000000000    -0.00038346206783
   21     -0.00054744552869    -0.00184985507652     0.00054744552869
   22      0.00082772126474     0.00000000000000     0.00080290320599
   23      0.00000000000000     0.00126197845912    -0.00126197845912
   24      0.00000000000000    -0.00248648013207     0.00248648013207
   25     -0.00054744552869     0.00184985507652    -0.00054744552869
   26      0.00248648013207    -0.00248648013207     0.00000000000000
   27      0.00000000000000    -0.00109186288115     0.00000000000000
   28      0.00000000000000    -0.00038346206783     0.00000000000000
   29      0.00082772126474     0.00080290320599     0.00000000000000
   30     -0.00054744552869     0.00054744552869    -0.00184985507652
   31      0.00000000000000    -0.00126197845912     0.00126197845912
   32      0.00000000000000    -0.00248648013207    -0.00248648013207
   33     -0.00054744552869     0.00184985507652     0.00054744552869
   34     -0.00054744552869     0.00054744552869     0.00184985507652
   35      0.00000000000000    -0.00126197845912    -0.00126197845912
   36     -0.00184985507652    -0.00054744552869    -0.00054744552869
   37      0.00000000000000     0.00000000000000     0.00038346206783
   38      0.00000000000000     0.00038346206783     0.00000000000000
   39      0.00109186288115     0.00000000000000     0.00000000000000
   40     -0.00080290320599     0.00082772126474     0.00000000000000
   41      0.00000000000000     0.00000000000000     0.00000000000000
   42      0.00000000000000     0.00082772126474    -0.00080290320599
   43      0.00126197845912     0.00000000000000     0.00126197845912
   44     -0.00184985507652    -0.00054744552869     0.00054744552869
   45      0.00000000000000     0.00000000000000    -0.00038346206783
   46      0.00000000000000     0.00082772126474     0.00080290320599
   47      0.00126197845912     0.00000000000000    -0.00126197845912
   48     -0.00080290320599     0.00000000000000     0.00082772126474
   49      0.00000000000000    -0.00080290320599     0.00082772126474
   50      0.00000000000000     0.00000000000000     0.00000000000000
   51      0.00126197845912     0.00126197845912     0.00000000000000
   52     -0.00021467404149     0.00000000000000     0.00000000000000
   53      0.00000000000000    -0.00021467404149     0.00000000000000
   54      0.00000000000000     0.00000000000000    -0.00021467404149
   55      0.00071143268322     0.00071143268322     0.00071143268322
   56     -0.00080290320599     0.00000000000000    -0.00082772126474
   57      0.00000000000000    -0.00080290320599    -0.00082772126474
   58      0.00000000000000     0.00000000000000     0.00021467404149
   59      0.00071143268322     0.00071143268322    -0.00071143268322
   60     -0.00184985507652     0.00054744552869    -0.00054744552869
   61      0.00000000000000     0.00080290320599     0.00082772126474
   62      0.00000000000000    -0.00038346206783     0.00000000000000
   63      0.00126197845912    -0.00126197845912     0.00000000000000
   64     -0.00080290320599    -0.00082772126474     0.00000000000000
   65      0.00000000000000     0.00021467404149     0.00000000000000
   66      0.00000000000000    -0.00082772126474    -0.00080290320599
   67      0.00071143268322    -0.00071143268322     0.00071143268322
   68     -0.00184985507652     0.00054744552869     0.00054744552869
   69      0.00000000000000     0.00080290320599    -0.00082772126474
   70      0.00000000000000    -0.00082772126474     0.00080290320599
   71      0.00071143268322    -0.00071143268322    -0.00071143268322
   72      0.00184985507652    -0.00054744552869    -0.00054744552869
   73     -0.00248648013207     0.00000000000000     0.00248648013207
   74     -0.00248648013207     0.00248648013207     0.00000000000000
   75     -0.00109186288115     0.00000000000000     0.00000000000000
   76      0.00080290320599     0.00082772126474     0.00000000000000
   77     -0.00038346206783     0.00000000000000     0.00000000000000
   78      0.00054744552869    -0.00054744552869    -0.00184985507652
   79     -0.00126197845912     0.00000000000000     0.00126197845912
   80      0.00184985507652    -0.00054744552869     0.00054744552869
   81     -0.00248648013207     0.00000000000000    -0.00248648013207
   82      0.00054744552869    -0.00054744552869     0.00184985507652
   83     -0.00126197845912     0.00000000000000    -0.00126197845912
   84      0.00080290320599     0.00000000000000     0.00082772126474
   85      0.00054744552869    -0.00184985507652    -0.00054744552869
   86     -0.00038346206783     0.00000000000000     0.00000000000000
   87     -0.00126197845912     0.00126197845912     0.00000000000000
   88      0.00021467404149     0.00000000000000     0.00000000000000
   89     -0.00082772126474    -0.00080290320599     0.00000000000000
   90     -0.00082772126474     0.00000000000000    -0.00080290320599
   91     -0.00071143268322     0.00071143268322     0.00071143268322
   92      0.00080290320599     0.00000000000000    -0.00082772126474
   93      0.00054744552869    -0.00184985507652     0.00054744552869
   94     -0.00082772126474     0.00000000000000     0.00080290320599
   95     -0.00071143268322     0.00071143268322    -0.00071143268322
   96      0.00184985507652     0.00054744552869    -0.00054744552869
   97      0.00054744552869     0.00184985507652    -0.00054744552869
   98     -0.00248648013207    -0.00248648013207     0.00000000000000
   99     -0.00126197845912    -0.00126197845912     0.00000000000000
  100      0.00080290320599    -0.00082772126474     0.00000000000000
  101     -0.00082772126474     0.00080290320599     0.00000000000000
  102      0.00054744552869     0.00054744552869    -0.00184985507652
  103     -0.00071143268322    -0.00071143268322     0.00071143268322
  104      0.00184985507652     0.00054744552869     0.00054744552869
  105      0.00054744552869     0.00184985507652     0.00054744552869
  106      0.00054744552869     0.00054744552869     0.00184985507652
  107     -0.00071143268322    -0.00071143268322    -0.00071143268322
 frms,max,avg= 1.0236649E-03 2.4864801E-03   0.000E+00  0.000E+00  0.000E+00 h/b

 cartesian forces (eV/Angstrom) at end:
    1      0.00000000000000     0.12785993847727     0.12785993847727
    2      0.12785993847727     0.00000000000000     0.12785993847727
    3      0.12785993847727     0.12785993847727     0.00000000000000
    4      0.00000000000000     0.01971841068400     0.00000000000000
    5      0.01971841068400     0.00000000000000     0.00000000000000
    6     -0.02815077857067    -0.02815077857067    -0.09512336464105
    7      0.00000000000000     0.00000000000000     0.05614584207196
    8      0.00000000000000     0.12785993847727    -0.12785993847727
    9      0.12785993847727     0.00000000000000    -0.12785993847727
   10     -0.02815077857067    -0.02815077857067     0.09512336464105
   11      0.00000000000000     0.00000000000000    -0.05614584207196
   12      0.00000000000000     0.00000000000000     0.01971841068400
   13     -0.02815077857067    -0.09512336464105    -0.02815077857067
   14      0.01971841068400     0.00000000000000     0.00000000000000
   15      0.00000000000000     0.05614584207196     0.00000000000000
   16      0.00000000000000     0.00000000000000     0.00000000000000
   17      0.04256313518094    -0.04128693939561     0.00000000000000
   18      0.04256313518094     0.00000000000000    -0.04128693939561
   19      0.00000000000000     0.06489353607202     0.06489353607202
   20      0.00000000000000     0.00000000000000    -0.01971841068400
   21     -0.02815077857067    -0.09512336464105     0.02815077857067
   22      0.04256313518094     0.00000000000000     0.04128693939561
   23      0.00000000000000     0.06489353607202    -0.06489353607202
   24      0.00000000000000    -0.12785993847727     0.12785993847727
   25     -0.02815077857067     0.09512336464105    -0.02815077857067
   26      0.12785993847727    -0.12785993847727     0.00000000000000
[...]
                       6.6685959145E-01  3.3314040855E-01  0.0000000000E+00
                       6.6683883580E-01  5.0000000000E-01  5.0000000000E-01
                       8.3350376806E-01  3.3291657817E-01  5.0000000000E-01
                       8.3350376806E-01  5.0000000000E-01  3.3291657817E-01
                       6.6697112171E-01  3.3302887829E-01  3.3302887829E-01
                       6.6708342183E-01  5.0000000000E-01  8.3350376806E-01
                       8.3403087614E-01  3.3213568011E-01  8.3403087614E-01
                       8.3350376806E-01  5.0000000000E-01  6.6708342183E-01
                       6.6697112171E-01  3.3302887829E-01  6.6697112171E-01
                       6.6786431989E-01  8.3403087614E-01  1.6596912386E-01
                       8.3403087614E-01  6.6786431989E-01  1.6596912386E-01
                       8.3673904019E-01  8.3673904019E-01  0.0000000000E+00
                       6.6685959145E-01  6.6685959145E-01  0.0000000000E+00
                       6.6708342183E-01  8.3350376806E-01  5.0000000000E-01
                       8.3350376806E-01  6.6708342183E-01  5.0000000000E-01
                       8.3403087614E-01  8.3403087614E-01  3.3213568011E-01
                       6.6697112171E-01  6.6697112171E-01  3.3302887829E-01
                       6.6786431989E-01  8.3403087614E-01  8.3403087614E-01
                       8.3403087614E-01  6.6786431989E-01  8.3403087614E-01
                       8.3403087614E-01  8.3403087614E-01  6.6786431989E-01
                       6.6697112171E-01  6.6697112171E-01  6.6697112171E-01
            znucl       79.00000

================================================================================

- Total cpu        time (s,m,h):       5263.8       87.73      1.462
- Total wall clock time (s,m,h):       5263.8       87.73      1.462
-
- For major independent code sections, cpu and wall times (sec),
-  as well as % of the time and number of calls for node 0-
- routine                        cpu     %       wall     %      number of calls 
- nonlop(apply)                 10.162   0.2     10.169   0.2            480
- fourwf(pot)                    9.536   0.2      9.535   0.2            240
- rwwf                           2.923   0.1      2.923   0.1              1
- vtowfk(ssdiag)                 2.642   0.1      2.642   0.1             -1
- nonlop(forstr)                 1.334   0.0      1.335   0.0             24
- fourdp                         0.969   0.0      0.968   0.0             14
- mkrho/=                        0.753   0.0      0.753   0.0              4
- forces                         0.588   0.0      0.588   0.0              1
- stress                         0.433   0.0      0.433   0.0              1
- mkcore                         0.372   0.0      0.372   0.0              3
- vtowfk(contrib)                0.272   0.0      0.271   0.0              2
- invars2                        0.260   0.0      0.259   0.0              1
- pspini                         0.248   0.0      0.248   0.0              1
- ewald                          0.235   0.0      0.235   0.0              1
- vtorho(4)mkrhpaw               0.209   0.0      0.210   0.0              4
- ewald2                         0.203   0.0      0.203   0.0              1
- abinit(2)                      0.177   0.0      0.176   0.0              1
- getghc-other                   0.176   0.0      0.163   0.0             -1
- symrhg(no FFT)                 0.157   0.0      0.156   0.0              2
- setsym                         0.139   0.0      0.139   0.0              1
- xc:pot/=fourdp                 0.083   0.0      0.084   0.0              3
- vtorho-kpt loop                0.079   0.0      0.078   0.0              2
- vtorho  (1)                    0.042   0.0      0.042   0.0              2
- status                         0.012   0.0      0.012   0.0            114
- inwffil                        0.006   0.0      0.007   0.0              1
- vtowfk  (1)                    0.004   0.0      0.004   0.0              2
- vtorho:synchro                 0.002   0.0      0.001   0.0              2
- scfcv-scprqt                   0.001   0.0      0.000   0.0              2
- kpgsph                         0.001   0.0      0.001   0.0              2
- vtorho:MPI                     0.000   0.0      0.000   0.0              2
- vtowfk3(contrib)               0.000   0.0      0.000   0.0             -1
- cgwf3-O(npw)                   0.000   0.0      0.000   0.0             -1
- 38   others                    0.000   0.0      0.000   0.0
-
- subtotal                      32.018   0.6     32.007   0.6

- For major independent code sections, cpu and wall times (sec),
- as well as % of the total time and number of calls 

- routine                         cpu     %       wall     %      number of calls 
-                                                                  (-1=no count)
- nonlop(apply)               1092.841  20.8   1092.868  20.8          51840
- fourwf(pot)                  964.804  18.3    964.712  18.3          25920
- rwwf                         315.746   6.0    315.749   6.0            108
- vtowfk(ssdiag)               285.144   5.4    285.140   5.4           -108
- nonlop(forstr)               143.584   2.7    143.594   2.7           2592
- fourdp                       115.181   2.2    115.207   2.2           1512
- mkrho/=                       82.894   1.6     82.885   1.6            432
- forces                        63.052   1.2     63.048   1.2            108
- stress                        46.757   0.9     46.759   0.9            108
- mkcore                        40.270   0.8     40.271   0.8            324
- vtowfk(contrib)               28.886   0.5     28.883   0.5            216
- invars2                       27.424   0.5     27.415   0.5            108
- pspini                        26.326   0.5     26.318   0.5            108
- ewald                         25.897   0.5     25.904   0.5            108
- ewald2                        22.219   0.4     22.220   0.4            108
- vtorho(4)mkrhpaw              20.843   0.4     20.847   0.4            432
- abinit(2)                     18.408   0.3     18.414   0.3            108
- getghc-other                  18.315   0.3     18.293   0.3           -108
- symrhg(no FFT)                16.991   0.3     16.989   0.3            216
- setsym                        12.538   0.2     12.546   0.2            108
- xc:pot/=fourdp                 8.911   0.2      8.919   0.2            324
- vtorho-kpt loop                6.364   0.1      6.367   0.1            216
- scfcv-scprqt                   4.791   0.1      4.788   0.1            216
- vtorho  (1)                    3.866   0.1      3.875   0.1            216
- vtorho:synchro                 0.834   0.0      0.828   0.0            216
- inwffil                        0.623   0.0      0.640   0.0            108
- kpgsph                         0.057   0.0      0.064   0.0            216
- vtowfk  (1)                    0.013   0.0      0.012   0.0            216
- status                         0.012   0.0      0.012   0.0            114
- vtorho:MPI                     0.007   0.0      0.011   0.0            216
- vtowfk3(contrib)               0.000   0.0      0.000   0.0           -108
- cgwf3-O(npw)                   0.000   0.0      0.000   0.0           -108
- 38   others                    0.000   0.0      0.000   0.0

- subtotal                    3393.596  64.5   3393.578  64.5

 Partitioning of abinit 
- abinit                      5263.787 100.0   5263.794 100.0            108
 
- abinit(1)                     17.636   0.3     17.631   0.3            108
- abinit(2)                     18.408   0.3     18.414   0.3            108
- invars2m                      30.156   0.6     30.156   0.6            108
- abinit(4)                      4.600   0.1      4.609   0.1            108
- abinit(5)                    108.829   2.1    108.826   2.1            108
- driver                      5084.075  96.6   5084.092  96.6            108
- abinit(6)                      0.052   0.0      0.049   0.0            108

- subtotal                    5263.756 100.0   5263.777 100.0

 Partitioning of driver 
- driver                      5084.075  96.6   5084.092  96.6            108
 
- gstateimg                   5083.419  96.6   5083.429  96.6            108

- subtotal                    5083.419  96.6   5083.429  96.6

 Partitioning of gstateimg+gstate 
- gstateimg                   5083.419  96.6   5083.429  96.6            108
 
- gstate->kpgsph                26.354   0.5     26.367   0.5            216
- gstate(pspini)                26.328   0.5     26.320   0.5            108
- gstate  (2)                   20.104   0.4     20.106   0.4            108
- test_ionmov                 4533.095  86.1   4533.096  86.1            108
- gstate  (3)                  476.840   9.1    476.846   9.1            108

- subtotal                    5082.721  96.6   5082.735  96.6

 Partitioning of scfcv_core 
- scfcv                       4533.078  86.1   4533.066  86.1            108
 
- scfcv   (1)                    0.760   0.0      0.739   0.0            108
- setvtr                        53.101   1.0     53.111   1.0            216
- setvtr:mkcore                  8.377   0.2      8.376   0.2            108
- stress-mkcore                 11.686   0.2     11.684   0.2            108
- scfcv-read                     0.005   0.0      0.005   0.0            216
- vtorho                      4065.231  77.2   4065.238  77.2            216
- etotfor/=forces                0.002   0.0      0.000   0.0            432
- scfcv-scprqt                   4.791   0.1      4.788   0.1            216
- newvtr/newrho                 42.481   0.8     42.476   0.8            216
- scfcv   (6)                  325.934   6.2    325.930   6.2            216
- scfcv :synchro                11.128   0.2     11.128   0.2            108
- stress                        46.757   0.9     46.759   0.9            108

- subtotal                    4570.254  86.8   4570.234  86.8

 Partitioning of etotfor/rhotov 
- etotfor/=forces                0.002   0.0      0.000   0.0            432
- rhotov                        19.743   0.4     19.738   0.4            216
- forces-mkcore                 20.211   0.4     20.217   0.4            108
- forces                        63.052   1.2     63.048   1.2            108

- subtotal                     103.009   2.0    103.003   2.0

 Partitioning of vtorho 
- vtorho                      4065.231  77.2   4065.238  77.2            216
 
- vtorho  (1)                    3.866   0.1      3.875   0.1            216
- vtowfk                      3900.155  74.1   3900.151  74.1            216
- vtorho-kpt loop                6.364   0.1      6.367   0.1            216
- vtorho:synchro                 0.834   0.0      0.828   0.0            216
- vtorho:MPI                     0.007   0.0      0.011   0.0            216
- vtorho  (4)                  153.997   2.9    153.998   2.9            432

- subtotal                    4065.223  77.2   4065.230  77.2

 Partitioning of vtowfk 
- vtowfk                      3900.155  74.1   3900.151  74.1            216
 
- lobpcg                      3586.113  68.1   3586.116  68.1            432
- subdiago                     265.735   5.0    265.724   5.0            432
- orthon                         0.001   0.0      0.000   0.0            432
- nonlocalpart                  21.064   0.4     21.058   0.4            216

- subtotal                    3872.913  73.6   3872.898  73.6

 Partitioning of lobpcg 
- lobpcg                      3586.113  68.1   3586.116  68.1            432
 
- prep_getghc%lobp            2297.674  43.7   2297.936  43.7          25920
- xprecon%lobpcg                 3.522   0.1      3.540   0.1          25920
- zheegv-dsyegv                293.063   5.6    293.110   5.6          46656

- subtotal                    2594.260  49.3   2594.586  49.3

 Partitioning of getghc 
- getghc                      2075.959  39.4   2075.873  39.4          51840
 
- fourwf%getghc                964.804  18.3    964.712  18.3          25920
- nonlop%getghc               1092.841  20.8   1092.868  20.8          51840
- getghc-other                  18.315   0.3     18.293   0.3           -108

- subtotal                    2075.959  39.4   2075.873  39.4

 Partitioning of fourwf 
- fourwf(total )              1024.769  19.5   1024.648  19.5          28512
 
- fourwf%getghc                964.804  18.3    964.712  18.3          25920
- fourwf%prep_four              59.966   1.1     59.936   1.1           2592

- subtotal                    1024.769  19.5   1024.648  19.5

 Partitioning of prep_getghc 
- prep_getghc%lobp            2297.674  43.7   2297.936  43.7          25920
 
- getghc%prep_getg            2075.959  39.4   2075.873  39.4          51840
- alltoall%prep_ge             133.285   2.5    133.283   2.5          51840

- subtotal                    2209.244  42.0   2209.156  42.0

 Partitioning of prep_fourwf 
- prep_fourwf                   70.094   1.3     70.099   1.3           2592
 
- fourwf%prep_four              59.966   1.1     59.936   1.1           2592
- alltoall%prep_fo               5.612   0.1      5.582   0.1           2592

- subtotal                      65.578   1.2     65.518   1.2

 Partitioning of sg_fourwf (disabled) 



 Partitioning of mkrho 
- mkrho%vtorho                 133.155   2.5    133.151   2.5            216
 
- symrhg%mkrho                  50.256   1.0     50.261   1.0            216
- prep_fourwf%mkrh              70.094   1.3     70.099   1.3           2592

- subtotal                     120.350   2.3    120.360   2.3
-
-Synchronisation (=leave_test) and MPI calls 
- communic.MPI                  66.278   1.3     66.643   1.3         567000
-
- vtorho:MPI                     0.007   0.0      0.011   0.0            216
- scfcv :synchro                11.128   0.2     11.128   0.2            108
- mkrho :synchro                 0.460   0.0      0.472   0.0            216
- forstrnps:synchr               0.106   0.0      0.108   0.0            216
- vtorho:synchro                 0.834   0.0      0.828   0.0            216
- inwffil:synchro                0.100   0.0      0.111   0.0            108
- mkrho :MPIrhor                 0.001   0.0      0.000   0.0            216
- alltoall%back_wf             342.732   6.5    342.763   6.5          28512
- alltoall%forw_wf             223.392   4.2    223.337   4.2          25920
-
- subtotal                     578.760  11.0    578.758  11.0

 Additional information 
- total timab                    0.000   0.0      0.000   0.0         939174
- fourwf(total )              1024.769  19.5   1024.648  19.5          28512
- mklocl(2)                     19.421   0.4     19.420   0.4            108
- status                         0.012   0.0      0.012   0.0            114
- newocc                        20.008   0.4     20.005   0.4            216
- nonlop(forstr)               143.584   2.7    143.594   2.7           2592
- nonlop(total)               1236.424  23.5   1236.462  23.5          54432


 Detailed analysis of some time consuming routines 
                                  tcpu    ncalls  tcpu/ncalls    ndata tcpu/ncalls/ndata
                                 (sec)                (msec)              (microsec)
- fourwf(pot)                  964.804     25920      37.222    442368       0.084
- fourwf(den)                    0.000         0
- fourdp                       115.181      1512      76.178    221184       0.344
- nonlop(apply)               1092.841     51840      21.081     33063       0.638
- nonlop(forces)                 0.000         0
- nonlop(forstr)               143.584      2592      55.395     33063       1.675
- projbd                         0.000         0
- xc:pot/=fourdp                 8.911       324      27.504    221184       0.124

================================================================================

 Suggested references for the acknowledgment of ABINIT usage.

 The users of ABINIT have little formal obligations with respect to the ABINIT group
 (those specified in the GNU General Public License, http://www.gnu.org/copyleft/gpl.txt).
 However, it is common practice in the scientific literature,
 to acknowledge the efforts of people that have made the research possible.
 In this spirit, please find below suggested citations of work written by ABINIT developers,
 corresponding to implementations inside of ABINIT that you have used in the present run.
 Note also that it will be of great value to readers of publications presenting these results,
 to read papers enabling them to understand the theoretical formalism and details
 of the ABINIT implementation.
 For information on why they are suggested, see also https://docs.abinit.org/theory/acknowledgments.
-
- [1] Large scale ab initio calculations based on three levels of parallelization
- F. Bottin, S. Leroux, A. Knyazev, G. Zerah, Comput. Mat. Science 42, 329, (2008).
- Comment : in case paral_kgb is non-zero. Strong suggestion to cite this paper in your publications.
- This paper is also available at http://www.arxiv.org/abs/0707.3405
-
- [2] ABINIT : First-principles approach of materials and nanosystem properties.
- X. Gonze, B. Amadon, P.-M. Anglade, J.-M. Beuken, F. Bottin, P. Boulanger, F. Bruneval,
- D. Caliste, R. Caracas, M. Cote, T. Deutsch, L. Genovese, Ph. Ghosez, M. Giantomassi
- S. Goedecker, D.R. Hamann, P. Hermet, F. Jollet, G. Jomard, S. Leroux, M. Mancini, S. Mazevet,
- M.J.T. Oliveira, G. Onida, Y. Pouillon, T. Rangel, G.-M. Rignanese, D. Sangalli, R. Shaltaf,
- M. Torrent, M.J. Verstraete, G. Zerah, J.W. Zwanziger
- Computer Phys. Comm. 180, 2582-2615 (2009).
- Comment : the third generic paper describing the ABINIT project.
- Note that a version of this paper, that is not formatted for Computer Phys. Comm. 
- is available at https://www.abinit.org/about/ABINIT_CPC_v10.pdf .
- The licence allows the authors to put it on the Web.
-
- [3] A brief introduction to the ABINIT software package.
- X. Gonze, G.-M. Rignanese, M. Verstraete, J.-M. Beuken, Y. Pouillon, R. Caracas, F. Jollet,
- M. Torrent, G. Zerah, M. Mikami, Ph. Ghosez, M. Veithen, J.-Y. Raty, V. Olevano, F. Bruneval,
- L. Reining, R. Godby, G. Onida, D.R. Hamann, and D.C. Allan.
- Z. Kristallogr. 220, 558-562 (2005).
- Comment : the second generic paper describing the ABINIT project. Note that this paper
- should be cited especially if you are using the GW part of ABINIT, as several authors
- of this part are not in the list of authors of the first or third paper.
- The .pdf of the latter paper is available at https://www.abinit.org/about/zfk_0505-06_558-562.pdf.
- Note that it should not redistributed (Copyright by Oldenburg Wissenshaftverlag,
- the licence allows the authors to put it on the Web).
-
-
- And optionally :
-
- [4] First-principles computation of material properties : the ABINIT software project. 
- X. Gonze, J.-M. Beuken, R. Caracas, F. Detraux, M. Fuchs, G.-M. Rignanese, L. Sindic,
- M. Verstraete, G. Zerah, F. Jollet, M. Torrent, A. Roy, M. Mikami, Ph. Ghosez, J.-Y. Raty, D.C. Allan.
- Computational Materials Science 25, 478-492 (2002). http://dx.doi.org/10.1016/S0927-0256(02)00325-7
- Comment : the original paper describing the ABINIT project.
-
- [5] Fast radix 2, 3, 4 and 5 kernels for Fast Fourier Transformations
- on computers with overlapping multiply-add instructions.
- S. Goedecker, SIAM J. on Scientific Computing 18, 1605 (1997).
-
- Proc.   0 individual time (sec): cpu=         49.0  wall=         49.0

================================================================================

 Calculation completed.
.Delivered    2 WARNINGs and   6 COMMENTs to log file.
+Overall time at end (sec) : cpu=       5288.4  wall=       5288.4
