
.Version 6.10.1 of ABINIT 
.(MPI version, prepared for a x86_64_linux_intel12.0 computer) 

.Copyright (C) 1998-2020 ABINIT group . 
 ABINIT comes with ABSOLUTELY NO WARRANTY.
 It is free software, and you are welcome to redistribute it
 under certain conditions (GNU General Public License,
 see ~abinit/COPYING or http://www.gnu.org/copyleft/gpl.txt).

 ABINIT is a project of the Universite Catholique de Louvain,
 Corning Inc. and other collaborators, see ~abinit/doc/developers/contributors.txt .
 Please read https://docs.abinit.org/theory/acknowledgments for suggested
 acknowledgments of the ABINIT effort.
 For more information, see https://www.abinit.org .

.Starting date : Sat  5 Nov 2011.
- ( at 19h22 )
  
- input  file    -> tgspw_02.in
- output file    -> tgspw_02.out
- root for input  files -> tgspw_02.i
- root for output files -> tgspw_02.o


 Symmetries : space group Pm -3 m (#221); Bravais cP (primitive cubic)
================================================================================
 Values of the parameters that define the memory need of the present run
   intxc =         0  ionmov =         0    iscf =         7 xclevel =         1
  lmnmax =         2   lnmax =         2   mband =       648  mffmem =         1
P  mgfft =        48   mkmem =         1 mpssoang=         3     mpw =        59
  mqgrid =      3001   natom =       107    nfft =     36864    nkpt =         1
  nloalg =         4  nspden =         1 nspinor =         1  nsppol =         1
    nsym =        48  n1xccc =      2501  ntypat =         1  occopt =         3
================================================================================
P This job should need less than                      28.816 Mbytes of memory.
  Rough estimation (10% accuracy) of disk space for files :
  WF disk file :      1.752 Mbytes ; DEN or POT disk file :      0.283 Mbytes.
================================================================================

--------------------------------------------------------------------------------
------------- Echo of variables that govern the present computation ------------
--------------------------------------------------------------------------------
-
- outvars: echo of selected default values                                      
-   accesswff0 =  0 , fftalg0 =401 , wfoptalg0 =  0
-
- outvars: echo of global parameters not present in the input file              
-   nproc =  108
-
 -outvars: echo values of preprocessed input variables --------
        accesswff           1
            acell      2.3010000000E+01  2.3010000000E+01  2.3010000000E+01 Bohr
              amu      1.96966540E+02
     densfor_pred           6
             ecut      5.00000000E+00 Hartree
              kpt      2.50000000E-01  2.50000000E-01  2.50000000E-01
          kptrlen      4.60200000E+01
         kptrlatt      2  0  0   0  2  0   0  0  2
P           mkmem           1
            natom         107
            nband         648
            ngfft          48      48      48
             nkpt           1
           npband          36
            npfft           3
            nstep          10
             nsym          48
           ntypat           1
              occ      2.000000  2.000000  2.000000  2.000000  2.000000  2.000000
                       2.000000  2.000000  2.000000  2.000000  2.000000  2.000000
                       2.000000  2.000000  2.000000  2.000000  2.000000  2.000000
                       2.000000  2.000000  2.000000  2.000000  2.000000  2.000000
                       2.000000  2.000000  2.000000  2.000000  2.000000  2.000000
                       2.000000  2.000000  2.000000  2.000000  2.000000  2.000000
                       2.000000  2.000000  2.000000  2.000000  2.000000  2.000000
                       2.000000  2.000000  2.000000  2.000000  2.000000  2.000000
                       2.000000  2.000000  2.000000  2.000000  2.000000  2.000000
                       2.000000  2.000000  2.000000  2.000000  2.000000  2.000000
                       2.000000  2.000000  2.000000  2.000000  2.000000  2.000000
                       2.000000  2.000000  2.000000  2.000000  2.000000  2.000000
                       2.000000  2.000000  2.000000  2.000000  2.000000  2.000000
                       2.000000  2.000000  2.000000  2.000000  2.000000  2.000000
                       2.000000  2.000000  2.000000  2.000000  2.000000  2.000000
                       2.000000  2.000000  2.000000  2.000000  2.000000  2.000000
                       2.000000  2.000000  2.000000  2.000000  2.000000  2.000000
                       2.000000  2.000000  2.000000  2.000000  2.000000  2.000000
                       2.000000  2.000000  2.000000  2.000000  2.000000  2.000000
                       2.000000  2.000000  2.000000  2.000000  2.000000  2.000000
                       2.000000  2.000000  2.000000  2.000000  2.000000  2.000000
                       2.000000  2.000000  2.000000  2.000000  2.000000  2.000000
                       2.000000  2.000000  2.000000  2.000000  2.000000  2.000000
                       2.000000  2.000000  2.000000  2.000000  2.000000  2.000000
                       2.000000  2.000000  2.000000  2.000000  2.000000  2.000000
                       2.000000  2.000000  2.000000  2.000000  2.000000  2.000000
                       2.000000  2.000000  2.000000  2.000000  2.000000  2.000000
                       2.000000  2.000000  2.000000  2.000000  2.000000  2.000000
                       2.000000  2.000000  2.000000  2.000000  2.000000  2.000000
                       2.000000  2.000000  2.000000  2.000000  2.000000  2.000000
                       2.000000  2.000000  2.000000  2.000000  2.000000  2.000000
                       2.000000  2.000000  2.000000  2.000000  2.000000  2.000000
                       2.000000  2.000000  2.000000  2.000000  2.000000  2.000000
                       2.000000  2.000000  2.000000  2.000000  2.000000  2.000000
                       2.000000  2.000000  2.000000  2.000000  2.000000  2.000000
                       2.000000  2.000000  2.000000  2.000000  2.000000  2.000000
                       2.000000  2.000000  2.000000  2.000000  2.000000  2.000000
                       2.000000  2.000000  2.000000  2.000000  2.000000  2.000000
                       2.000000  2.000000  2.000000  2.000000  2.000000  2.000000
                       2.000000  2.000000  2.000000  2.000000  2.000000  2.000000
                       2.000000  2.000000  2.000000  2.000000  2.000000  2.000000
                       2.000000  2.000000  2.000000  2.000000  2.000000  2.000000
                       2.000000  2.000000  2.000000  2.000000  2.000000  2.000000
                       2.000000  2.000000  2.000000  2.000000  2.000000  2.000000
                       2.000000  2.000000  2.000000  2.000000  2.000000  2.000000
                       2.000000  2.000000  2.000000  2.000000  2.000000  2.000000
                       2.000000  2.000000  2.000000  2.000000  2.000000  2.000000
                       2.000000  2.000000  2.000000  2.000000  2.000000  2.000000
                       2.000000  2.000000  2.000000  2.000000  2.000000  2.000000
                       2.000000  2.000000  2.000000  2.000000  2.000000  2.000000
                       2.000000  2.000000  2.000000  2.000000  2.000000  2.000000
                       2.000000  2.000000  2.000000  2.000000  2.000000  2.000000
                       2.000000  2.000000  2.000000  2.000000  2.000000  2.000000
                       2.000000  2.000000  2.000000  2.000000  2.000000  2.000000
                       2.000000  2.000000  2.000000  2.000000  2.000000  2.000000
                       2.000000  2.000000  2.000000  2.000000  2.000000  2.000000
                       2.000000  2.000000  2.000000  2.000000  2.000000  2.000000
                       2.000000  2.000000  2.000000  2.000000  2.000000  2.000000
                       2.000000  2.000000  2.000000  2.000000  2.000000  2.000000
                       2.000000  2.000000  2.000000  2.000000  2.000000  2.000000
                       2.000000  2.000000  2.000000  2.000000  2.000000  2.000000
                       2.000000  2.000000  2.000000  2.000000  2.000000  2.000000
                       2.000000  2.000000  2.000000  2.000000  2.000000  2.000000
                       2.000000  2.000000  2.000000  2.000000  2.000000  2.000000
                       2.000000  2.000000  2.000000  2.000000  2.000000  2.000000
                       2.000000  2.000000  2.000000  2.000000  2.000000  2.000000
                       2.000000  2.000000  2.000000  2.000000  2.000000  2.000000
                       2.000000  2.000000  2.000000  2.000000  2.000000  2.000000
                       2.000000  2.000000  2.000000  2.000000  2.000000  2.000000
                       2.000000  2.000000  2.000000  2.000000  2.000000  2.000000
                       2.000000  2.000000  2.000000  2.000000  2.000000  2.000000
                       2.000000  2.000000  2.000000  2.000000  2.000000  2.000000
                       2.000000  2.000000  2.000000  2.000000  2.000000  2.000000
                       2.000000  2.000000  2.000000  2.000000  2.000000  2.000000
                       2.000000  2.000000  2.000000  2.000000  2.000000  2.000000
                       2.000000  2.000000  2.000000  2.000000  2.000000  2.000000
                       2.000000  2.000000  2.000000  2.000000  2.000000  2.000000
                       2.000000  2.000000  2.000000  2.000000  2.000000  2.000000
                       2.000000  2.000000  2.000000  2.000000  2.000000  2.000000
                       2.000000  2.000000  2.000000  2.000000  2.000000  2.000000
                       2.000000  2.000000  2.000000  2.000000  2.000000  2.000000
                       2.000000  2.000000  2.000000  2.000000  2.000000  2.000000
                       2.000000  2.000000  2.000000  2.000000  2.000000  2.000000
                       2.000000  2.000000  2.000000  2.000000  2.000000  2.000000
                       2.000000  2.000000  2.000000  2.000000  2.000000  2.000000
                       2.000000  2.000000  2.000000  2.000000  2.000000  2.000000
                       2.000000  2.000000  2.000000  2.000000  2.000000  2.000000
                       2.000000  2.000000  2.000000  2.000000  2.000000  2.000000
                       2.000000  2.000000  2.000000  2.000000  2.000000  2.000000
                       2.000000  2.000000  2.000000  2.000000  2.000000  2.000000
                       2.000000  2.000000  2.000000  2.000000  2.000000  2.000000
                       2.000000  2.000000  2.000000  2.000000  2.000000  2.000000
                       2.000000  2.000000  2.000000  2.000000  2.000000  2.000000
                       2.000000  2.000000  2.000000  2.000000  2.000000  2.000000
                       2.000000  2.000000  2.000000  2.000000  2.000000  2.000000
                       2.000000  2.000000  2.000000  2.000000  2.000000  2.000000
                       2.000000  2.000000  2.000000  2.000000  2.000000  2.000000
                       2.000000  2.000000  2.000000  2.000000  2.000000  2.000000
                       1.000000  0.000000  0.000000  0.000000  0.000000  0.000000
                       0.000000  0.000000  0.000000  0.000000  0.000000  0.000000
                       0.000000  0.000000  0.000000  0.000000  0.000000  0.000000
                       0.000000  0.000000  0.000000  0.000000  0.000000  0.000000
                       0.000000  0.000000  0.000000  0.000000  0.000000  0.000000
                       0.000000  0.000000  0.000000  0.000000  0.000000  0.000000
                       0.000000  0.000000  0.000000  0.000000  0.000000  0.000000
                       0.000000  0.000000  0.000000  0.000000  0.000000  0.000000
                       0.000000  0.000000  0.000000  0.000000  0.000000  0.000000
                       0.000000  0.000000  0.000000  0.000000  0.000000  0.000000
           occopt           3
           ortalg          -2
        paral_kgb           1
           prteig           0
           shiftk      5.00000000E-01  5.00000000E-01  5.00000000E-01
          spgroup         221
           symrel      1  0  0   0  1  0   0  0  1      -1  0  0   0 -1  0   0  0 -1
                      -1  0  0   0  1  0   0  0 -1       1  0  0   0 -1  0   0  0  1
                      -1  0  0   0 -1  0   0  0  1       1  0  0   0  1  0   0  0 -1
                       1  0  0   0 -1  0   0  0 -1      -1  0  0   0  1  0   0  0  1
                       0  1  0   1  0  0   0  0  1       0 -1  0  -1  0  0   0  0 -1
                       0 -1  0   1  0  0   0  0 -1       0  1  0  -1  0  0   0  0  1
                       0 -1  0  -1  0  0   0  0  1       0  1  0   1  0  0   0  0 -1
                       0  1  0  -1  0  0   0  0 -1       0 -1  0   1  0  0   0  0  1
                       0  0  1   1  0  0   0  1  0       0  0 -1  -1  0  0   0 -1  0
                       0  0 -1   1  0  0   0 -1  0       0  0  1  -1  0  0   0  1  0
                       0  0 -1  -1  0  0   0  1  0       0  0  1   1  0  0   0 -1  0
                       0  0  1  -1  0  0   0 -1  0       0  0 -1   1  0  0   0  1  0
                       1  0  0   0  0  1   0  1  0      -1  0  0   0  0 -1   0 -1  0
                      -1  0  0   0  0  1   0 -1  0       1  0  0   0  0 -1   0  1  0
                      -1  0  0   0  0 -1   0  1  0       1  0  0   0  0  1   0 -1  0
                       1  0  0   0  0 -1   0 -1  0      -1  0  0   0  0  1   0  1  0
                       0  1  0   0  0  1   1  0  0       0 -1  0   0  0 -1  -1  0  0
                       0 -1  0   0  0  1  -1  0  0       0  1  0   0  0 -1   1  0  0
                       0 -1  0   0  0 -1   1  0  0       0  1  0   0  0  1  -1  0  0
                       0  1  0   0  0 -1  -1  0  0       0 -1  0   0  0  1   1  0  0
                       0  0  1   0  1  0   1  0  0       0  0 -1   0 -1  0  -1  0  0
                       0  0 -1   0  1  0  -1  0  0       0  0  1   0 -1  0   1  0  0
                       0  0 -1   0 -1  0   1  0  0       0  0  1   0  1  0  -1  0  0
                       0  0  1   0 -1  0  -1  0  0       0  0 -1   0  1  0   1  0  0
           timopt          -3
           toldfe      1.00000000E-07 Hartree
           tsmear      2.00000000E-03 Hartree
            typat      1  1  1  1  1  1  1  1  1  1  1  1  1  1  1  1  1  1  1  1
                       1  1  1  1  1  1  1  1  1  1  1  1  1  1  1  1  1  1  1  1
                       1  1  1  1  1  1  1  1  1  1  1  1  1  1  1  1  1  1  1  1
                       1  1  1  1  1  1  1  1  1  1  1  1  1  1  1  1  1  1  1  1
                       1  1  1  1  1  1  1  1  1  1  1  1  1  1  1  1  1  1  1  1
                       1  1  1  1  1  1  1
         wfoptalg         114
           xangst      0.0000000000E+00  1.9879254564E+00  1.9879254564E+00
                       1.9879254564E+00  0.0000000000E+00  1.9879254564E+00
                       1.9879254564E+00  1.9879254564E+00  0.0000000000E+00
                       0.0000000000E+00  2.0263310236E+00  6.0881837848E+00
                       2.0263310236E+00  0.0000000000E+00  6.0881837848E+00
                       2.0209010573E+00  2.0209010573E+00  4.0442061240E+00
                       0.0000000000E+00  0.0000000000E+00  4.0488014894E+00
                       0.0000000000E+00  1.9879254564E+00  1.0188442113E+01
                       1.9879254564E+00  0.0000000000E+00  1.0188442113E+01
                       2.0209010573E+00  2.0209010573E+00  8.1321614456E+00
                       0.0000000000E+00  0.0000000000E+00  8.1275660803E+00
                       0.0000000000E+00  6.0881837848E+00  2.0263310236E+00
                       2.0209010573E+00  4.0442061240E+00  2.0209010573E+00
                       2.0263310236E+00  6.0881837848E+00  0.0000000000E+00
                       0.0000000000E+00  4.0488014894E+00  0.0000000000E+00
                       0.0000000000E+00  6.0881837848E+00  6.0881837848E+00
                       2.0273193191E+00  4.0537146258E+00  6.0881837848E+00
                       2.0273193191E+00  6.0881837848E+00  4.0537146258E+00
                       0.0000000000E+00  4.0564400668E+00  4.0564400668E+00
                       0.0000000000E+00  6.0881837848E+00  1.0150036546E+01
                       2.0209010573E+00  4.0442061240E+00  1.0155466512E+01
                       2.0273193191E+00  6.0881837848E+00  8.1226529438E+00
                       0.0000000000E+00  4.0564400668E+00  8.1199275028E+00
                       0.0000000000E+00  1.0188442113E+01  1.9879254564E+00
                       2.0209010573E+00  8.1321614456E+00  2.0209010573E+00
                       1.9879254564E+00  1.0188442113E+01  0.0000000000E+00
                       0.0000000000E+00  8.1275660803E+00  0.0000000000E+00
                       0.0000000000E+00  1.0150036546E+01  6.0881837848E+00
                       2.0273193191E+00  8.1226529438E+00  6.0881837848E+00
                       2.0209010573E+00  1.0155466512E+01  4.0442061240E+00
                       0.0000000000E+00  8.1199275028E+00  4.0564400668E+00
                       0.0000000000E+00  1.0188442113E+01  1.0188442113E+01
                       2.0209010573E+00  8.1321614456E+00  1.0155466512E+01
                       2.0209010573E+00  1.0155466512E+01  8.1321614456E+00
                       0.0000000000E+00  8.1199275028E+00  8.1199275028E+00
                       4.0442061240E+00  2.0209010573E+00  2.0209010573E+00
                       6.0881837848E+00  0.0000000000E+00  2.0263310236E+00
                       6.0881837848E+00  2.0263310236E+00  0.0000000000E+00
                       4.0488014894E+00  0.0000000000E+00  0.0000000000E+00
                       4.0537146258E+00  2.0273193191E+00  6.0881837848E+00
                       6.0881837848E+00  0.0000000000E+00  6.0881837848E+00
                       6.0881837848E+00  2.0273193191E+00  4.0537146258E+00
                       4.0564400668E+00  0.0000000000E+00  4.0564400668E+00
                       4.0442061240E+00  2.0209010573E+00  1.0155466512E+01
                       6.0881837848E+00  0.0000000000E+00  1.0150036546E+01
                       6.0881837848E+00  2.0273193191E+00  8.1226529438E+00
                       4.0564400668E+00  0.0000000000E+00  8.1199275028E+00
                       4.0537146258E+00  6.0881837848E+00  2.0273193191E+00
                       6.0881837848E+00  4.0537146258E+00  2.0273193191E+00
                       6.0881837848E+00  6.0881837848E+00  0.0000000000E+00
                       4.0564400668E+00  4.0564400668E+00  0.0000000000E+00
                       4.0566927952E+00  6.0881837848E+00  6.0881837848E+00
                       6.0881837848E+00  4.0566927952E+00  6.0881837848E+00
                       6.0881837848E+00  6.0881837848E+00  4.0566927952E+00
                       4.0550820334E+00  4.0550820334E+00  4.0550820334E+00
                       4.0537146258E+00  6.0881837848E+00  1.0149048251E+01
                       6.0881837848E+00  4.0537146258E+00  1.0149048251E+01
                       6.0881837848E+00  6.0881837848E+00  8.1196747744E+00
                       4.0550820334E+00  4.0550820334E+00  8.1212855363E+00
                       4.0442061240E+00  1.0155466512E+01  2.0209010573E+00
                       6.0881837848E+00  8.1226529438E+00  2.0273193191E+00
                       6.0881837848E+00  1.0150036546E+01  0.0000000000E+00
                       4.0564400668E+00  8.1199275028E+00  0.0000000000E+00
                       4.0537146258E+00  1.0149048251E+01  6.0881837848E+00
                       6.0881837848E+00  8.1196747744E+00  6.0881837848E+00
                       6.0881837848E+00  1.0149048251E+01  4.0537146258E+00
                       4.0550820334E+00  8.1212855363E+00  4.0550820334E+00
                       4.0442061240E+00  1.0155466512E+01  1.0155466512E+01
                       6.0881837848E+00  8.1226529438E+00  1.0149048251E+01
                       6.0881837848E+00  1.0149048251E+01  8.1226529438E+00
                       4.0550820334E+00  8.1212855363E+00  8.1212855363E+00
                       8.1321614456E+00  2.0209010573E+00  2.0209010573E+00
                       1.0188442113E+01  0.0000000000E+00  1.9879254564E+00
                       1.0188442113E+01  1.9879254564E+00  0.0000000000E+00
                       8.1275660803E+00  0.0000000000E+00  0.0000000000E+00
                       8.1226529438E+00  2.0273193191E+00  6.0881837848E+00
                       1.0150036546E+01  0.0000000000E+00  6.0881837848E+00
                       1.0155466512E+01  2.0209010573E+00  4.0442061240E+00
                       8.1199275028E+00  0.0000000000E+00  4.0564400668E+00
                       8.1321614456E+00  2.0209010573E+00  1.0155466512E+01
                       1.0188442113E+01  0.0000000000E+00  1.0188442113E+01
                       1.0155466512E+01  2.0209010573E+00  8.1321614456E+00
                       8.1199275028E+00  0.0000000000E+00  8.1199275028E+00
                       8.1226529438E+00  6.0881837848E+00  2.0273193191E+00
                       1.0155466512E+01  4.0442061240E+00  2.0209010573E+00
                       1.0150036546E+01  6.0881837848E+00  0.0000000000E+00
                       8.1199275028E+00  4.0564400668E+00  0.0000000000E+00
                       8.1196747744E+00  6.0881837848E+00  6.0881837848E+00
                       1.0149048251E+01  4.0537146258E+00  6.0881837848E+00
                       1.0149048251E+01  6.0881837848E+00  4.0537146258E+00
                       8.1212855363E+00  4.0550820334E+00  4.0550820334E+00
                       8.1226529438E+00  6.0881837848E+00  1.0149048251E+01
                       1.0155466512E+01  4.0442061240E+00  1.0155466512E+01
                       1.0149048251E+01  6.0881837848E+00  8.1226529438E+00
                       8.1212855363E+00  4.0550820334E+00  8.1212855363E+00
                       8.1321614456E+00  1.0155466512E+01  2.0209010573E+00
                       1.0155466512E+01  8.1321614456E+00  2.0209010573E+00
                       1.0188442113E+01  1.0188442113E+01  0.0000000000E+00
                       8.1199275028E+00  8.1199275028E+00  0.0000000000E+00
                       8.1226529438E+00  1.0149048251E+01  6.0881837848E+00
                       1.0149048251E+01  8.1226529438E+00  6.0881837848E+00
                       1.0155466512E+01  1.0155466512E+01  4.0442061240E+00
                       8.1212855363E+00  8.1212855363E+00  4.0550820334E+00
                       8.1321614456E+00  1.0155466512E+01  1.0155466512E+01
                       1.0155466512E+01  8.1321614456E+00  1.0155466512E+01
                       1.0155466512E+01  1.0155466512E+01  8.1321614456E+00
                       8.1212855363E+00  8.1212855363E+00  8.1212855363E+00
            xcart      0.0000000000E+00  3.7566346852E+00  3.7566346852E+00
                       3.7566346852E+00  0.0000000000E+00  3.7566346852E+00
                       3.7566346852E+00  3.7566346852E+00  0.0000000000E+00
                       0.0000000000E+00  3.8292106891E+00  1.1505000000E+01
                       3.8292106891E+00  0.0000000000E+00  1.1505000000E+01
                       3.8189495400E+00  3.8189495400E+00  7.6424419993E+00
                       0.0000000000E+00  0.0000000000E+00  7.6511259814E+00
                       0.0000000000E+00  3.7566346852E+00  1.9253365315E+01
                       3.7566346852E+00  0.0000000000E+00  1.9253365315E+01
                       3.8189495400E+00  3.8189495400E+00  1.5367558001E+01
                       0.0000000000E+00  0.0000000000E+00  1.5358874019E+01
                       0.0000000000E+00  1.1505000000E+01  3.8292106891E+00
                       3.8189495400E+00  7.6424419993E+00  3.8189495400E+00
                       3.8292106891E+00  1.1505000000E+01  0.0000000000E+00
                       0.0000000000E+00  7.6511259814E+00  0.0000000000E+00
                       0.0000000000E+00  1.1505000000E+01  1.1505000000E+01
                       3.8310782969E+00  7.6604104637E+00  1.1505000000E+01
                       3.8310782969E+00  1.1505000000E+01  7.6604104637E+00
                       0.0000000000E+00  7.6655608007E+00  7.6655608007E+00
                       0.0000000000E+00  1.1505000000E+01  1.9180789311E+01
                       3.8189495400E+00  7.6424419993E+00  1.9191050460E+01
                       3.8310782969E+00  1.1505000000E+01  1.5349589536E+01
                       0.0000000000E+00  7.6655608007E+00  1.5344439199E+01
                       0.0000000000E+00  1.9253365315E+01  3.7566346852E+00
                       3.8189495400E+00  1.5367558001E+01  3.8189495400E+00
                       3.7566346852E+00  1.9253365315E+01  0.0000000000E+00
                       0.0000000000E+00  1.5358874019E+01  0.0000000000E+00
                       0.0000000000E+00  1.9180789311E+01  1.1505000000E+01
                       3.8310782969E+00  1.5349589536E+01  1.1505000000E+01
                       3.8189495400E+00  1.9191050460E+01  7.6424419993E+00
                       0.0000000000E+00  1.5344439199E+01  7.6655608007E+00
                       0.0000000000E+00  1.9253365315E+01  1.9253365315E+01
                       3.8189495400E+00  1.5367558001E+01  1.9191050460E+01
                       3.8189495400E+00  1.9191050460E+01  1.5367558001E+01
                       0.0000000000E+00  1.5344439199E+01  1.5344439199E+01
                       7.6424419993E+00  3.8189495400E+00  3.8189495400E+00
                       1.1505000000E+01  0.0000000000E+00  3.8292106891E+00
                       1.1505000000E+01  3.8292106891E+00  0.0000000000E+00
                       7.6511259814E+00  0.0000000000E+00  0.0000000000E+00
                       7.6604104637E+00  3.8310782969E+00  1.1505000000E+01
                       1.1505000000E+01  0.0000000000E+00  1.1505000000E+01
                       1.1505000000E+01  3.8310782969E+00  7.6604104637E+00
                       7.6655608007E+00  0.0000000000E+00  7.6655608007E+00
                       7.6424419993E+00  3.8189495400E+00  1.9191050460E+01
                       1.1505000000E+01  0.0000000000E+00  1.9180789311E+01
                       1.1505000000E+01  3.8310782969E+00  1.5349589536E+01
                       7.6655608007E+00  0.0000000000E+00  1.5344439199E+01
                       7.6604104637E+00  1.1505000000E+01  3.8310782969E+00
                       1.1505000000E+01  7.6604104637E+00  3.8310782969E+00
                       1.1505000000E+01  1.1505000000E+01  0.0000000000E+00
                       7.6655608007E+00  7.6655608007E+00  0.0000000000E+00
                       7.6660383882E+00  1.1505000000E+01  1.1505000000E+01
                       1.1505000000E+01  7.6660383882E+00  1.1505000000E+01
                       1.1505000000E+01  1.1505000000E+01  7.6660383882E+00
                       7.6629944895E+00  7.6629944895E+00  7.6629944895E+00
                       7.6604104637E+00  1.1505000000E+01  1.9178921703E+01
                       1.1505000000E+01  7.6604104637E+00  1.9178921703E+01
                       1.1505000000E+01  1.1505000000E+01  1.5343961612E+01
                       7.6629944895E+00  7.6629944895E+00  1.5347005511E+01
                       7.6424419993E+00  1.9191050460E+01  3.8189495400E+00
                       1.1505000000E+01  1.5349589536E+01  3.8310782969E+00
                       1.1505000000E+01  1.9180789311E+01  0.0000000000E+00
                       7.6655608007E+00  1.5344439199E+01  0.0000000000E+00
                       7.6604104637E+00  1.9178921703E+01  1.1505000000E+01
                       1.1505000000E+01  1.5343961612E+01  1.1505000000E+01
                       1.1505000000E+01  1.9178921703E+01  7.6604104637E+00
                       7.6629944895E+00  1.5347005511E+01  7.6629944895E+00
                       7.6424419993E+00  1.9191050460E+01  1.9191050460E+01
                       1.1505000000E+01  1.5349589536E+01  1.9178921703E+01
                       1.1505000000E+01  1.9178921703E+01  1.5349589536E+01
                       7.6629944895E+00  1.5347005511E+01  1.5347005511E+01
                       1.5367558001E+01  3.8189495400E+00  3.8189495400E+00
                       1.9253365315E+01  0.0000000000E+00  3.7566346852E+00
                       1.9253365315E+01  3.7566346852E+00  0.0000000000E+00
                       1.5358874019E+01  0.0000000000E+00  0.0000000000E+00
                       1.5349589536E+01  3.8310782969E+00  1.1505000000E+01
                       1.9180789311E+01  0.0000000000E+00  1.1505000000E+01
                       1.9191050460E+01  3.8189495400E+00  7.6424419993E+00
                       1.5344439199E+01  0.0000000000E+00  7.6655608007E+00
                       1.5367558001E+01  3.8189495400E+00  1.9191050460E+01
                       1.9253365315E+01  0.0000000000E+00  1.9253365315E+01
                       1.9191050460E+01  3.8189495400E+00  1.5367558001E+01
                       1.5344439199E+01  0.0000000000E+00  1.5344439199E+01
                       1.5349589536E+01  1.1505000000E+01  3.8310782969E+00
                       1.9191050460E+01  7.6424419993E+00  3.8189495400E+00
                       1.9180789311E+01  1.1505000000E+01  0.0000000000E+00
                       1.5344439199E+01  7.6655608007E+00  0.0000000000E+00
                       1.5343961612E+01  1.1505000000E+01  1.1505000000E+01
                       1.9178921703E+01  7.6604104637E+00  1.1505000000E+01
                       1.9178921703E+01  1.1505000000E+01  7.6604104637E+00
                       1.5347005511E+01  7.6629944895E+00  7.6629944895E+00
                       1.5349589536E+01  1.1505000000E+01  1.9178921703E+01
                       1.9191050460E+01  7.6424419993E+00  1.9191050460E+01
                       1.9178921703E+01  1.1505000000E+01  1.5349589536E+01
                       1.5347005511E+01  7.6629944895E+00  1.5347005511E+01
                       1.5367558001E+01  1.9191050460E+01  3.8189495400E+00
                       1.9191050460E+01  1.5367558001E+01  3.8189495400E+00
                       1.9253365315E+01  1.9253365315E+01  0.0000000000E+00
                       1.5344439199E+01  1.5344439199E+01  0.0000000000E+00
                       1.5349589536E+01  1.9178921703E+01  1.1505000000E+01
                       1.9178921703E+01  1.5349589536E+01  1.1505000000E+01
                       1.9191050460E+01  1.9191050460E+01  7.6424419993E+00
                       1.5347005511E+01  1.5347005511E+01  7.6629944895E+00
                       1.5367558001E+01  1.9191050460E+01  1.9191050460E+01
                       1.9191050460E+01  1.5367558001E+01  1.9191050460E+01
                       1.9191050460E+01  1.9191050460E+01  1.5367558001E+01
                       1.5347005511E+01  1.5347005511E+01  1.5347005511E+01
             xred      0.0000000000E+00  1.6326095981E-01  1.6326095981E-01
                       1.6326095981E-01  0.0000000000E+00  1.6326095981E-01
                       1.6326095981E-01  1.6326095981E-01  0.0000000000E+00
                       0.0000000000E+00  1.6641506689E-01  5.0000000000E-01
                       1.6641506689E-01  0.0000000000E+00  5.0000000000E-01
                       1.6596912386E-01  1.6596912386E-01  3.3213568011E-01
                       0.0000000000E+00  0.0000000000E+00  3.3251308046E-01
                       0.0000000000E+00  1.6326095981E-01  8.3673904019E-01
                       1.6326095981E-01  0.0000000000E+00  8.3673904019E-01
                       1.6596912386E-01  1.6596912386E-01  6.6786431989E-01
                       0.0000000000E+00  0.0000000000E+00  6.6748691954E-01
                       0.0000000000E+00  5.0000000000E-01  1.6641506689E-01
                       1.6596912386E-01  3.3213568011E-01  1.6596912386E-01
                       1.6641506689E-01  5.0000000000E-01  0.0000000000E+00
                       0.0000000000E+00  3.3251308046E-01  0.0000000000E+00
                       0.0000000000E+00  5.0000000000E-01  5.0000000000E-01
                       1.6649623194E-01  3.3291657817E-01  5.0000000000E-01
                       1.6649623194E-01  5.0000000000E-01  3.3291657817E-01
                       0.0000000000E+00  3.3314040855E-01  3.3314040855E-01
                       0.0000000000E+00  5.0000000000E-01  8.3358493311E-01
                       1.6596912386E-01  3.3213568011E-01  8.3403087614E-01
                       1.6649623194E-01  5.0000000000E-01  6.6708342183E-01
                       0.0000000000E+00  3.3314040855E-01  6.6685959145E-01
                       0.0000000000E+00  8.3673904019E-01  1.6326095981E-01
                       1.6596912386E-01  6.6786431989E-01  1.6596912386E-01
                       1.6326095981E-01  8.3673904019E-01  0.0000000000E+00
                       0.0000000000E+00  6.6748691954E-01  0.0000000000E+00
                       0.0000000000E+00  8.3358493311E-01  5.0000000000E-01
                       1.6649623194E-01  6.6708342183E-01  5.0000000000E-01
                       1.6596912386E-01  8.3403087614E-01  3.3213568011E-01
                       0.0000000000E+00  6.6685959145E-01  3.3314040855E-01
                       0.0000000000E+00  8.3673904019E-01  8.3673904019E-01
                       1.6596912386E-01  6.6786431989E-01  8.3403087614E-01
                       1.6596912386E-01  8.3403087614E-01  6.6786431989E-01
                       0.0000000000E+00  6.6685959145E-01  6.6685959145E-01
                       3.3213568011E-01  1.6596912386E-01  1.6596912386E-01
                       5.0000000000E-01  0.0000000000E+00  1.6641506689E-01
                       5.0000000000E-01  1.6641506689E-01  0.0000000000E+00
                       3.3251308046E-01  0.0000000000E+00  0.0000000000E+00
                       3.3291657817E-01  1.6649623194E-01  5.0000000000E-01
                       5.0000000000E-01  0.0000000000E+00  5.0000000000E-01
                       5.0000000000E-01  1.6649623194E-01  3.3291657817E-01
                       3.3314040855E-01  0.0000000000E+00  3.3314040855E-01
                       3.3213568011E-01  1.6596912386E-01  8.3403087614E-01
                       5.0000000000E-01  0.0000000000E+00  8.3358493311E-01
                       5.0000000000E-01  1.6649623194E-01  6.6708342183E-01
                       3.3314040855E-01  0.0000000000E+00  6.6685959145E-01
                       3.3291657817E-01  5.0000000000E-01  1.6649623194E-01
                       5.0000000000E-01  3.3291657817E-01  1.6649623194E-01
                       5.0000000000E-01  5.0000000000E-01  0.0000000000E+00
                       3.3314040855E-01  3.3314040855E-01  0.0000000000E+00
                       3.3316116420E-01  5.0000000000E-01  5.0000000000E-01
                       5.0000000000E-01  3.3316116420E-01  5.0000000000E-01
                       5.0000000000E-01  5.0000000000E-01  3.3316116420E-01
                       3.3302887829E-01  3.3302887829E-01  3.3302887829E-01
                       3.3291657817E-01  5.0000000000E-01  8.3350376806E-01
                       5.0000000000E-01  3.3291657817E-01  8.3350376806E-01
                       5.0000000000E-01  5.0000000000E-01  6.6683883580E-01
                       3.3302887829E-01  3.3302887829E-01  6.6697112171E-01
                       3.3213568011E-01  8.3403087614E-01  1.6596912386E-01
                       5.0000000000E-01  6.6708342183E-01  1.6649623194E-01
                       5.0000000000E-01  8.3358493311E-01  0.0000000000E+00
                       3.3314040855E-01  6.6685959145E-01  0.0000000000E+00
                       3.3291657817E-01  8.3350376806E-01  5.0000000000E-01
                       5.0000000000E-01  6.6683883580E-01  5.0000000000E-01
                       5.0000000000E-01  8.3350376806E-01  3.3291657817E-01
                       3.3302887829E-01  6.6697112171E-01  3.3302887829E-01
                       3.3213568011E-01  8.3403087614E-01  8.3403087614E-01
                       5.0000000000E-01  6.6708342183E-01  8.3350376806E-01
                       5.0000000000E-01  8.3350376806E-01  6.6708342183E-01
                       3.3302887829E-01  6.6697112171E-01  6.6697112171E-01
                       6.6786431989E-01  1.6596912386E-01  1.6596912386E-01
                       8.3673904019E-01  0.0000000000E+00  1.6326095981E-01
                       8.3673904019E-01  1.6326095981E-01  0.0000000000E+00
                       6.6748691954E-01  0.0000000000E+00  0.0000000000E+00
                       6.6708342183E-01  1.6649623194E-01  5.0000000000E-01
                       8.3358493311E-01  0.0000000000E+00  5.0000000000E-01
                       8.3403087614E-01  1.6596912386E-01  3.3213568011E-01
                       6.6685959145E-01  0.0000000000E+00  3.3314040855E-01
                       6.6786431989E-01  1.6596912386E-01  8.3403087614E-01
                       8.3673904019E-01  0.0000000000E+00  8.3673904019E-01
                       8.3403087614E-01  1.6596912386E-01  6.6786431989E-01
                       6.6685959145E-01  0.0000000000E+00  6.6685959145E-01
                       6.6708342183E-01  5.0000000000E-01  1.6649623194E-01
                       8.3403087614E-01  3.3213568011E-01  1.6596912386E-01
                       8.3358493311E-01  5.0000000000E-01  0.0000000000E+00
                       6.6685959145E-01  3.3314040855E-01  0.0000000000E+00
                       6.6683883580E-01  5.0000000000E-01  5.0000000000E-01
                       8.3350376806E-01  3.3291657817E-01  5.0000000000E-01
                       8.3350376806E-01  5.0000000000E-01  3.3291657817E-01
                       6.6697112171E-01  3.3302887829E-01  3.3302887829E-01
                       6.6708342183E-01  5.0000000000E-01  8.3350376806E-01
                       8.3403087614E-01  3.3213568011E-01  8.3403087614E-01
                       8.3350376806E-01  5.0000000000E-01  6.6708342183E-01
                       6.6697112171E-01  3.3302887829E-01  6.6697112171E-01
                       6.6786431989E-01  8.3403087614E-01  1.6596912386E-01
                       8.3403087614E-01  6.6786431989E-01  1.6596912386E-01
                       8.3673904019E-01  8.3673904019E-01  0.0000000000E+00
                       6.6685959145E-01  6.6685959145E-01  0.0000000000E+00
                       6.6708342183E-01  8.3350376806E-01  5.0000000000E-01
                       8.3350376806E-01  6.6708342183E-01  5.0000000000E-01
                       8.3403087614E-01  8.3403087614E-01  3.3213568011E-01
                       6.6697112171E-01  6.6697112171E-01  3.3302887829E-01
                       6.6786431989E-01  8.3403087614E-01  8.3403087614E-01
                       8.3403087614E-01  6.6786431989E-01  8.3403087614E-01
                       8.3403087614E-01  8.3403087614E-01  6.6786431989E-01
                       6.6697112171E-01  6.6697112171E-01  6.6697112171E-01
            znucl       79.00000

================================================================================

 chkinp: Checking input parameters for consistency.

================================================================================
== DATASET  1 ==================================================================

 Exchange-correlation functional for the present dataset will be:
  LDA: new Teter (4/93) with spin-polarized option - ixc=1
 Citation for XC functional:
  S. Goedecker, M. Teter, J. Huetter, PRB 54, 1703 (1996)
 
 Real(R)+Recip(G) space primitive vectors, cartesian coordinates (Bohr,Bohr^-1):
 R(1)= 23.0100000  0.0000000  0.0000000  G(1)=  0.0434594  0.0000000  0.0000000
 R(2)=  0.0000000 23.0100000  0.0000000  G(2)=  0.0000000  0.0434594  0.0000000
 R(3)=  0.0000000  0.0000000 23.0100000  G(3)=  0.0000000  0.0000000  0.0434594
 Unit cell volume ucvol=  1.2182877E+04 bohr^3
 Angles (23,13,12)=  9.00000000E+01  9.00000000E+01  9.00000000E+01 degrees

 getcut: wavevector=  0.0000  0.0000  0.0000  ngfft=  48  48  48
         ecut(hartree)=      5.000   => boxcut(ratio)=   2.07240

--- Pseudopotential description ------------------------------------------------
- pspini: atom type   1  psp file is 79au.pspnc
- pspatm: opening atomic psp file    79au.pspnc
-  Troullier-Martins psp for element  Au        Thu Oct 27 17:58:22 EDT 1994
- 79.00000  11.00000    940714                znucl, zion, pspdat
    1    1    2    0      2001   0.00000      pspcod,pspxc,lmax,lloc,mmax,r2well
    0   7.710  12.096    0   2.0761953        l,e99.0,e99.9,nproj,rcpsp
   0.00000000   0.00000000   0.00000000   0.00000000     rms, ekb1, ekb2, epsatm
    1   2.329   4.015    1   3.0973349        l,e99.0,e99.9,nproj,rcpsp
   0.00000000   0.00000000   0.00000000   0.00000000     rms, ekb1, ekb2, epsatm
    2  13.861  18.519    1   1.9261744        l,e99.0,e99.9,nproj,rcpsp
   0.00000000   0.00000000   0.00000000   0.00000000     rms, ekb1, ekb2, epsatm
    1.84225747565994    1.72828030557005    9.43000986633162   rchrg,fchrg,qchrg
 pspatm : epsatm=   90.81237674
         --- l  ekb(1:nproj) -->
             1    0.637337
             2   -5.866564
 pspatm: atomic psp has been read  and splines computed

   1.14368199E+07                                ecore*ucvol(ha*bohr**3)
--------------------------------------------------------------------------------

P newkpt: treating    648 bands with npw=      59 for ikpt=   1 by node    0
 
 setup2: Arith. and geom. avg. npw (full set) are      59.000      59.000

================================================================================

     iter   Etot(hartree)      deltaE(h)  residm     vres2
 ETOT  1  -3729.1290689306    -3.729E+03 4.800E-03 8.066E+03
 ETOT  2  -3748.3860028675    -1.926E+01 3.621E-03 1.499E+04
 ETOT  3  -3683.5368267495     6.485E+01 8.589E-04 1.964E+05
 ETOT  4  -3752.9535632855    -6.942E+01 7.533E-04 1.641E+03
 ETOT  5  -3754.2009291112    -1.247E+00 9.185E-04 2.523E+02
 ETOT  6  -3754.3423606762    -1.414E-01 2.230E-04 6.387E+01
 ETOT  7  -3754.4147002444    -7.234E-02 1.949E-04 5.888E+01
 ETOT  8  -3754.4391047157    -2.440E-02 1.637E-04 1.021E+01
 ETOT  9  -3754.4445207473    -5.416E-03 1.333E-04 3.853E+00
 ETOT 10  -3754.4460493339    -1.529E-03 7.121E-05 3.144E-01

 Cartesian components of stress tensor (hartree/bohr^3)
  sigma(1 1)=  3.00205025E-02  sigma(3 2)=  0.00000000E+00
  sigma(2 2)=  3.00205025E-02  sigma(3 1)=  0.00000000E+00
  sigma(3 3)=  3.00205025E-02  sigma(2 1)=  0.00000000E+00
 

 scprqt:  WARNING -
  nstep=   10 was not enough SCF cycles to converge;
  maximum energy difference=  1.529E-03 exceeds toldfe=  1.000E-07

================================================================================

 ----iterations are completed or convergence reached----

 Mean square residual over all n,k,spin=   8.4323E-07; max=  7.1206E-05
   0.2500  0.2500  0.2500    1  7.12055E-05 kpt; spin; max resid(k); each band:
  3.20E-11 4.49E-11 4.50E-11 4.06E-11 1.18E-10 1.18E-10 7.54E-11 2.41E-10
  1.74E-10 1.74E-10 1.15E-10 2.79E-10 2.80E-10 2.77E-10 2.77E-10 3.46E-10
  2.23E-10 6.80E-10 6.83E-10 3.68E-10 6.59E-10 6.60E-10 8.07E-10 1.34E-09
  1.35E-09 8.51E-10 1.37E-09 1.37E-09 9.60E-10 2.49E-09 2.52E-09 1.03E-08
  1.03E-08 2.65E-09 6.70E-09 2.36E-09 1.39E-09 1.39E-09 7.44E-10 3.72E-10
  3.71E-10 4.20E-10 4.54E-10 4.54E-10 3.04E-10 4.60E-10 4.58E-10 1.16E-09
  9.45E-10 9.40E-10 4.46E-10 5.00E-10 4.98E-10 4.48E-10 1.87E-09 1.88E-09
  1.24E-09 1.56E-09 1.56E-09 2.55E-09 2.35E-09 6.41E-09 6.41E-09 2.71E-09
  2.70E-09 7.87E-10 8.85E-10 8.85E-10 1.60E-09 5.01E-09 5.01E-09 2.68E-09
  1.47E-09 1.46E-09 4.84E-10 9.17E-10 9.15E-10 9.25E-10 5.02E-10 5.01E-10
  4.62E-10 4.60E-10 5.02E-10 3.76E-10 4.00E-10 3.97E-10 5.89E-10 3.90E-10
  5.20E-10 5.21E-10 8.05E-10 8.04E-10 1.04E-09 7.00E-10 6.93E-10 4.76E-10
  6.58E-10 6.57E-10 8.49E-10 1.06E-09 1.05E-09 1.62E-09 1.39E-09 2.21E-09
  2.21E-09 1.24E-09 1.24E-09 7.59E-09 3.20E-09 3.18E-09 5.21E-09 5.19E-09
  1.17E-08 3.73E-09 3.68E-09 3.63E-09 6.31E-09 4.34E-09 4.39E-09 8.22E-09
  4.96E-09 5.03E-09 1.02E-08 9.93E-09 3.73E-09 1.07E-08 5.30E-09 5.23E-09
  1.45E-08 5.78E-09 5.86E-09 1.33E-08 5.50E-09 5.70E-09 3.03E-09 1.37E-08
  1.90E-09 5.22E-09 5.48E-09 1.34E-08 1.54E-08 1.38E-08 1.34E-08 9.89E-09
  2.53E-09 7.56E-09 1.15E-08 1.09E-08 8.84E-09 6.29E-09 6.18E-09 6.94E-09
  2.64E-09 6.83E-09 4.56E-09 4.51E-09 3.81E-09 3.68E-09 5.65E-09 5.34E-09
  7.22E-09 4.09E-09 3.52E-09 7.64E-09 5.76E-09 5.65E-09 1.85E-09 3.54E-09
  4.67E-09 4.62E-09 7.28E-09 1.35E-08 1.35E-08 7.54E-09 6.01E-09 6.08E-09
  1.44E-08 1.16E-08 8.44E-09 8.16E-09 6.32E-09 6.32E-09 2.11E-09 2.69E-09
  2.73E-09 3.62E-09 4.95E-09 4.20E-09 3.24E-09 3.22E-09 4.05E-09 4.16E-09
  4.08E-09 5.56E-09 6.87E-09 6.90E-09 6.39E-09 6.45E-09 9.36E-09 7.92E-09
  8.20E-09 2.63E-09 4.36E-09 4.48E-09 1.16E-08 5.10E-09 5.17E-09 7.64E-09
  6.62E-09 5.34E-09 5.38E-09 5.82E-09 1.10E-08 1.09E-08 4.16E-09 4.22E-09
  2.58E-09 2.59E-09 2.67E-09 5.06E-09 2.23E-09 3.08E-09 3.44E-09 7.78E-09
  6.03E-09 6.28E-09 7.56E-09 5.64E-09 8.02E-09 6.93E-09 7.74E-09 3.49E-09
  2.78E-09 4.76E-09 5.15E-09 6.28E-09 6.16E-09 6.98E-09 1.08E-08 3.45E-09
  4.16E-09 4.07E-09 6.89E-09 9.11E-09 1.43E-08 7.51E-09 7.41E-09 3.54E-09
  3.69E-09 8.28E-09 8.69E-09 6.07E-09 4.52E-09 8.21E-09 3.97E-09 6.13E-09
  5.87E-09 5.73E-09 5.44E-09 3.80E-09 4.42E-09 8.19E-09 8.02E-09 3.21E-09
  3.89E-09 3.62E-09 4.96E-09 4.98E-09 4.30E-09 4.20E-09 6.14E-09 3.39E-09
  3.34E-09 4.04E-09 3.88E-09 3.58E-09 4.44E-09 1.14E-08 1.13E-08 8.34E-09
  8.04E-09 8.12E-09 7.62E-09 7.46E-09 1.50E-08 3.78E-09 4.26E-09 4.30E-09
  4.29E-09 4.36E-09 2.45E-09 2.96E-09 3.96E-09 3.93E-09 6.13E-09 6.50E-09
  5.04E-09 5.07E-09 5.96E-09 6.09E-09 5.26E-09 2.95E-09 2.99E-09 1.74E-09
  6.36E-09 6.36E-09 4.19E-09 4.14E-09 6.13E-09 5.31E-09 5.29E-09 5.22E-09
  4.34E-09 5.51E-09 5.56E-09 5.96E-09 6.45E-09 2.50E-09 6.86E-09 2.10E-09
  6.58E-09 7.05E-09 7.15E-09 5.53E-09 3.08E-09 2.68E-09 2.77E-09 3.87E-09
  2.68E-09 2.40E-09 2.07E-09 2.05E-09 2.89E-09 2.78E-09 2.60E-09 2.21E-09
  1.91E-09 2.96E-09 3.05E-09 3.02E-09 2.11E-09 2.10E-09 2.07E-09 2.45E-09
  2.26E-09 2.29E-09 3.00E-09 2.98E-09 2.90E-09 2.87E-09 4.01E-09 5.39E-09
  3.88E-09 4.04E-09 4.10E-09 3.49E-09 5.05E-09 5.11E-09 1.96E-09 1.95E-09
  1.30E-09 8.39E-10 1.54E-09 1.51E-09 2.28E-09 2.26E-09 2.45E-09 2.44E-09
  2.77E-09 3.14E-09 3.09E-09 2.32E-09 2.82E-09 2.80E-09 1.95E-09 2.91E-09
  2.40E-09 2.38E-09 2.87E-09 2.91E-09 1.34E-09 3.79E-09 3.80E-09 3.36E-09
  3.85E-09 3.77E-09 4.96E-09 6.18E-09 6.08E-09 2.23E-09 1.63E-09 4.43E-09
  4.27E-09 5.01E-09 2.96E-09 2.95E-09 1.56E-09 3.11E-09 3.39E-09 2.49E-09
  2.51E-09 2.14E-09 3.15E-09 2.61E-09 2.57E-09 3.18E-09 3.47E-09 1.72E-09
  2.99E-09 2.56E-09 3.23E-09 2.41E-09 2.51E-09 1.68E-09 2.41E-09 2.35E-09
  2.06E-09 2.09E-09 2.16E-09 2.53E-09 2.59E-09 2.49E-09 3.58E-09 2.19E-09
  2.48E-09 3.69E-09 2.67E-09 3.15E-09 4.16E-09 2.93E-09 2.39E-09 5.12E-09
  2.98E-09 3.67E-09 3.63E-09 4.34E-09 3.44E-09 3.23E-09 2.54E-09 2.55E-09
  3.64E-09 3.10E-09 3.24E-09 2.78E-09 2.20E-09 3.69E-09 3.73E-09 2.30E-09
  2.23E-09 3.14E-09 3.54E-09 3.42E-09 4.52E-09 4.39E-09 2.71E-09 3.98E-09
  5.34E-09 5.24E-09 4.80E-09 5.33E-09 5.42E-09 7.34E-09 4.87E-09 5.01E-09
  4.06E-09 4.12E-09 6.48E-09 4.85E-09 3.15E-09 5.44E-09 5.79E-09 3.26E-09
  3.26E-09 2.23E-09 3.57E-09 2.88E-09 4.03E-09 4.90E-09 4.74E-09 4.67E-09
  6.27E-09 1.88E-09 1.90E-09 4.68E-09 2.23E-09 4.53E-09 4.56E-09 4.04E-09
  8.19E-09 8.09E-09 4.81E-09 4.73E-09 4.31E-09 3.36E-09 6.19E-09 7.01E-09
  7.16E-09 4.10E-09 3.81E-09 5.10E-09 6.22E-09 6.19E-09 4.85E-09 5.07E-09
  1.76E-09 5.15E-09 2.77E-09 2.91E-09 3.81E-09 2.63E-09 2.70E-09 3.63E-09
  5.15E-09 5.41E-09 3.82E-09 3.89E-09 3.44E-09 5.69E-09 6.34E-09 3.19E-09
  7.22E-09 4.88E-09 5.57E-09 9.69E-09 5.48E-09 6.17E-09 4.19E-09 5.83E-09
  6.79E-09 5.50E-09 7.04E-09 1.45E-08 5.96E-09 9.66E-09 6.26E-09 8.96E-09
  1.50E-08 7.80E-09 6.70E-09 1.32E-08 6.62E-09 9.28E-09 1.22E-08 6.74E-09
  9.41E-09 7.96E-09 1.60E-08 1.96E-08 3.50E-08 2.74E-08 3.43E-08 7.04E-08
  1.79E-08 2.84E-08 1.08E-08 1.65E-07 4.17E-08 6.44E-08 1.66E-08 1.19E-07
  2.92E-08 8.64E-08 6.51E-08 2.35E-08 5.95E-08 1.53E-08 2.87E-08 5.25E-08
  1.46E-07 6.50E-08 2.81E-07 7.32E-08 3.70E-07 3.34E-07 3.89E-08 5.82E-08
  1.42E-08 6.33E-08 1.41E-07 1.01E-07 3.60E-08 4.75E-08 3.09E-08 2.56E-07
  5.94E-07 3.19E-08 3.36E-08 8.36E-08 6.72E-08 2.28E-07 7.83E-08 6.41E-08
  8.01E-07 1.61E-07 1.77E-07 7.06E-08 2.11E-07 8.65E-08 1.16E-07 2.57E-08
  8.29E-08 1.29E-07 5.21E-07 6.14E-08 8.88E-08 2.46E-07 2.40E-07 8.23E-08
  1.68E-07 2.56E-07 4.60E-07 2.60E-07 2.08E-07 9.91E-07 5.91E-08 1.48E-07
  8.41E-08 2.49E-07 4.52E-07 2.86E-07 8.42E-07 1.62E-06 1.47E-06 1.85E-06
  2.09E-06 3.73E-06 1.30E-06 3.37E-06 4.26E-06 9.30E-06 1.24E-06 4.40E-06
  2.08E-05 5.09E-05 3.70E-05 3.06E-05 2.31E-05 1.84E-06 8.59E-06 1.93E-06
  5.69E-05 1.53E-05 4.40E-05 5.10E-05 1.36E-05 2.75E-05 7.12E-05 4.34E-05
 reduced coordinates (array xred) for  107 atoms
       0.000000000000      0.163260959810      0.163260959810
       0.163260959810      0.000000000000      0.163260959810
       0.163260959810      0.163260959810      0.000000000000
       0.000000000000      0.166415066890      0.500000000000
       0.166415066890      0.000000000000      0.500000000000
       0.165969123860      0.165969123860      0.332135680110
       0.000000000000      0.000000000000      0.332513080460
       0.000000000000      0.163260959810      0.836739040190
       0.163260959810      0.000000000000      0.836739040190
       0.165969123860      0.165969123860      0.667864319890
       0.000000000000      0.000000000000      0.667486919540
       0.000000000000      0.500000000000      0.166415066890
       0.165969123860      0.332135680110      0.165969123860
       0.166415066890      0.500000000000      0.000000000000
       0.000000000000      0.332513080460      0.000000000000
       0.000000000000      0.500000000000      0.500000000000
       0.166496231940      0.332916578170      0.500000000000
       0.166496231940      0.500000000000      0.332916578170
       0.000000000000      0.333140408550      0.333140408550
       0.000000000000      0.500000000000      0.833584933110
       0.165969123860      0.332135680110      0.834030876140
       0.166496231940      0.500000000000      0.667083421830
       0.000000000000      0.333140408550      0.666859591450
       0.000000000000      0.836739040190      0.163260959810
       0.165969123860      0.667864319890      0.165969123860
       0.163260959810      0.836739040190      0.000000000000
       0.000000000000      0.667486919540      0.000000000000
       0.000000000000      0.833584933110      0.500000000000
       0.166496231940      0.667083421830      0.500000000000
       0.165969123860      0.834030876140      0.332135680110
       0.000000000000      0.666859591450      0.333140408550
       0.000000000000      0.836739040190      0.836739040190
       0.165969123860      0.667864319890      0.834030876140
       0.165969123860      0.834030876140      0.667864319890
       0.000000000000      0.666859591450      0.666859591450
       0.332135680110      0.165969123860      0.165969123860
       0.500000000000      0.000000000000      0.166415066890
       0.500000000000      0.166415066890      0.000000000000
       0.332513080460      0.000000000000      0.000000000000
       0.332916578170      0.166496231940      0.500000000000
       0.500000000000      0.000000000000      0.500000000000
       0.500000000000      0.166496231940      0.332916578170
       0.333140408550      0.000000000000      0.333140408550
       0.332135680110      0.165969123860      0.834030876140
       0.500000000000      0.000000000000      0.833584933110
       0.500000000000      0.166496231940      0.667083421830
       0.333140408550      0.000000000000      0.666859591450
       0.332916578170      0.500000000000      0.166496231940
       0.500000000000      0.332916578170      0.166496231940
       0.500000000000      0.500000000000      0.000000000000
       0.333140408550      0.333140408550      0.000000000000
       0.333161164200      0.500000000000      0.500000000000
       0.500000000000      0.333161164200      0.500000000000
       0.500000000000      0.500000000000      0.333161164200
       0.333028878290      0.333028878290      0.333028878290
       0.332916578170      0.500000000000      0.833503768060
       0.500000000000      0.332916578170      0.833503768060
       0.500000000000      0.500000000000      0.666838835800
       0.333028878290      0.333028878290      0.666971121710
       0.332135680110      0.834030876140      0.165969123860
       0.500000000000      0.667083421830      0.166496231940
       0.500000000000      0.833584933110      0.000000000000
       0.333140408550      0.666859591450      0.000000000000
       0.332916578170      0.833503768060      0.500000000000
       0.500000000000      0.666838835800      0.500000000000
       0.500000000000      0.833503768060      0.332916578170
       0.333028878290      0.666971121710      0.333028878290
       0.332135680110      0.834030876140      0.834030876140
       0.500000000000      0.667083421830      0.833503768060
       0.500000000000      0.833503768060      0.667083421830
       0.333028878290      0.666971121710      0.666971121710
       0.667864319890      0.165969123860      0.165969123860
       0.836739040190      0.000000000000      0.163260959810
       0.836739040190      0.163260959810      0.000000000000
       0.667486919540      0.000000000000      0.000000000000
       0.667083421830      0.166496231940      0.500000000000
       0.833584933110      0.000000000000      0.500000000000
       0.834030876140      0.165969123860      0.332135680110
       0.666859591450      0.000000000000      0.333140408550
       0.667864319890      0.165969123860      0.834030876140
       0.836739040190      0.000000000000      0.836739040190
       0.834030876140      0.165969123860      0.667864319890
       0.666859591450      0.000000000000      0.666859591450
       0.667083421830      0.500000000000      0.166496231940
       0.834030876140      0.332135680110      0.165969123860
       0.833584933110      0.500000000000      0.000000000000
       0.666859591450      0.333140408550      0.000000000000
       0.666838835800      0.500000000000      0.500000000000
       0.833503768060      0.332916578170      0.500000000000
       0.833503768060      0.500000000000      0.332916578170
       0.666971121710      0.333028878290      0.333028878290
       0.667083421830      0.500000000000      0.833503768060
       0.834030876140      0.332135680110      0.834030876140
       0.833503768060      0.500000000000      0.667083421830
       0.666971121710      0.333028878290      0.666971121710
       0.667864319890      0.834030876140      0.165969123860
       0.834030876140      0.667864319890      0.165969123860
       0.836739040190      0.836739040190      0.000000000000
       0.666859591450      0.666859591450      0.000000000000
       0.667083421830      0.833503768060      0.500000000000
       0.833503768060      0.667083421830      0.500000000000
       0.834030876140      0.834030876140      0.332135680110
       0.666971121710      0.666971121710      0.333028878290
       0.667864319890      0.834030876140      0.834030876140
       0.834030876140      0.667864319890      0.834030876140
       0.834030876140      0.834030876140      0.667864319890
       0.666971121710      0.666971121710      0.666971121710
 rms dE/dt=  6.5967E-01; max dE/dt=  1.9895E+00; dE/dt below (all hartree)
    1       0.000000000000      1.989525923188      1.989525923188
    2       1.989525923188      0.000000000000      1.989525923188
    3       1.989525923188      1.989525923188      0.000000000000
    4       0.000000000000      0.255963509074      0.000000000000
    5       0.255963509074      0.000000000000      0.000000000000
    6       0.533348606326      0.533348606326      0.877891164231
    7       0.000000000000      0.000000000000      0.838670901334
    8       0.000000000000      1.989525923188     -1.989525923188
    9       1.989525923188      0.000000000000     -1.989525923188
   10       0.533348606326      0.533348606326     -0.877891164231
   11       0.000000000000      0.000000000000     -0.838670901334
   12       0.000000000000      0.000000000000      0.255963509074
   13       0.533348606326      0.877891164231      0.533348606326
   14       0.255963509074      0.000000000000      0.000000000000
   15       0.000000000000      0.838670901334      0.000000000000
   16       0.000000000000      0.000000000000      0.000000000000
   17       0.222964795136      0.258072790723      0.000000000000
   18       0.222964795136      0.000000000000      0.258072790723
   19       0.000000000000     -0.289804025579     -0.289804025579
   20       0.000000000000      0.000000000000     -0.255963509074
   21       0.533348606326      0.877891164231     -0.533348606326
   22       0.222964795136      0.000000000000     -0.258072790723
   23       0.000000000000     -0.289804025579      0.289804025579
   24       0.000000000000     -1.989525923188      1.989525923188
   25       0.533348606326     -0.877891164231      0.533348606326
   26       1.989525923188     -1.989525923188      0.000000000000
   27       0.000000000000     -0.838670901334      0.000000000000
   28       0.000000000000     -0.255963509074      0.000000000000
   29       0.222964795136     -0.258072790723      0.000000000000
   30       0.533348606326     -0.533348606326      0.877891164231
   31       0.000000000000      0.289804025579     -0.289804025579
   32       0.000000000000     -1.989525923188     -1.989525923188
   33       0.533348606326     -0.877891164231     -0.533348606326
   34       0.533348606326     -0.533348606326     -0.877891164231
   35       0.000000000000      0.289804025579      0.289804025579
   36       0.877891164231      0.533348606326      0.533348606326
   37       0.000000000000      0.000000000000      0.255963509074
   38       0.000000000000      0.255963509074      0.000000000000
   39       0.838670901334      0.000000000000      0.000000000000
   40       0.258072790723      0.222964795136      0.000000000000
   41       0.000000000000      0.000000000000      0.000000000000
   42       0.000000000000      0.222964795136      0.258072790723
   43      -0.289804025579      0.000000000000     -0.289804025579
   44       0.877891164231      0.533348606326     -0.533348606326
   45       0.000000000000      0.000000000000     -0.255963509074
   46       0.000000000000      0.222964795136     -0.258072790723
   47      -0.289804025579      0.000000000000      0.289804025579
   48       0.258072790723      0.000000000000      0.222964795136
   49       0.000000000000      0.258072790723      0.222964795136
   50       0.000000000000      0.000000000000      0.000000000000
   51      -0.289804025579     -0.289804025579      0.000000000000
   52       0.202396025676      0.000000000000      0.000000000000
   53       0.000000000000      0.202396025676      0.000000000000
   54       0.000000000000      0.000000000000      0.202396025676
   55       0.321371111422      0.321371111422      0.321371111422
   56       0.258072790723      0.000000000000     -0.222964795136
   57       0.000000000000      0.258072790723     -0.222964795136
   58       0.000000000000      0.000000000000     -0.202396025676
   59       0.321371111422      0.321371111422     -0.321371111422
   60       0.877891164231     -0.533348606326      0.533348606326
   61       0.000000000000     -0.258072790723      0.222964795136
   62       0.000000000000     -0.255963509074      0.000000000000
   63      -0.289804025579      0.289804025579      0.000000000000
   64       0.258072790723     -0.222964795136      0.000000000000
   65       0.000000000000     -0.202396025676      0.000000000000
   66       0.000000000000     -0.222964795136      0.258072790723
   67       0.321371111422     -0.321371111422      0.321371111422
   68       0.877891164231     -0.533348606326     -0.533348606326
   69       0.000000000000     -0.258072790723     -0.222964795136
   70       0.000000000000     -0.222964795136     -0.258072790723
   71       0.321371111422     -0.321371111422     -0.321371111422
   72      -0.877891164231      0.533348606326      0.533348606326
   73      -1.989525923188      0.000000000000      1.989525923188
   74      -1.989525923188      1.989525923188      0.000000000000
   75      -0.838670901334      0.000000000000      0.000000000000
   76      -0.258072790723      0.222964795136      0.000000000000
   77      -0.255963509074      0.000000000000      0.000000000000
   78      -0.533348606326      0.533348606326      0.877891164231
   79       0.289804025579      0.000000000000     -0.289804025579
   80      -0.877891164231      0.533348606326     -0.533348606326
   81      -1.989525923188      0.000000000000     -1.989525923188
   82      -0.533348606326      0.533348606326     -0.877891164231
   83       0.289804025579      0.000000000000      0.289804025579
   84      -0.258072790723      0.000000000000      0.222964795136
   85      -0.533348606326      0.877891164231      0.533348606326
   86      -0.255963509074      0.000000000000      0.000000000000
   87       0.289804025579     -0.289804025579      0.000000000000
   88      -0.202396025676      0.000000000000      0.000000000000
   89      -0.222964795136      0.258072790723      0.000000000000
   90      -0.222964795136      0.000000000000      0.258072790723
   91      -0.321371111422      0.321371111422      0.321371111422
   92      -0.258072790723      0.000000000000     -0.222964795136
   93      -0.533348606326      0.877891164231     -0.533348606326
   94      -0.222964795136      0.000000000000     -0.258072790723
   95      -0.321371111422      0.321371111422     -0.321371111422
   96      -0.877891164231     -0.533348606326      0.533348606326
   97      -0.533348606326     -0.877891164231      0.533348606326
   98      -1.989525923188     -1.989525923188      0.000000000000
   99       0.289804025579      0.289804025579      0.000000000000
  100      -0.258072790723     -0.222964795136      0.000000000000
  101      -0.222964795136     -0.258072790723      0.000000000000
  102      -0.533348606326     -0.533348606326      0.877891164231
  103      -0.321371111422     -0.321371111422      0.321371111422
  104      -0.877891164231     -0.533348606326     -0.533348606326
  105      -0.533348606326     -0.877891164231     -0.533348606326
  106      -0.533348606326     -0.533348606326     -0.877891164231
  107      -0.321371111422     -0.321371111422     -0.321371111422
 
 cartesian coordinates (angstrom) at end:
    1      0.00000000000000     1.98792545642138     1.98792545642138
    2      1.98792545642138     0.00000000000000     1.98792545642138
    3      1.98792545642138     1.98792545642138     0.00000000000000
    4      0.00000000000000     2.02633102358151     6.08818378482795
    5      2.02633102358151     0.00000000000000     6.08818378482795
    6      2.02090105733311     2.02090105733311     4.04420612401701
    7      0.00000000000000     0.00000000000000     4.04880148939953
    8      0.00000000000000     1.98792545642138    10.18844211323452
    9      1.98792545642138     0.00000000000000    10.18844211323452
   10      2.02090105733311     2.02090105733311     8.13216144563889
   11      0.00000000000000     0.00000000000000     8.12756608025637
   12      0.00000000000000     6.08818378482795     2.02633102358151
   13      2.02090105733311     4.04420612401701     2.02090105733311
   14      2.02633102358151     6.08818378482795     0.00000000000000
   15      0.00000000000000     4.04880148939953     0.00000000000000
   16      0.00000000000000     6.08818378482795     6.08818378482795
   17      2.02731931906412     4.05371462583000     6.08818378482795
   18      2.02731931906412     6.08818378482795     4.05371462583000
   19      0.00000000000000     4.05644006681014     4.05644006681014
   20      0.00000000000000     6.08818378482795    10.15003654607439
   21      2.02090105733311     4.04420612401701    10.15546651232279
   22      2.02731931906412     6.08818378482795     8.12265294382590
   23      0.00000000000000     4.05644006681014     8.11992750284576
   24      0.00000000000000    10.18844211323452     1.98792545642138
   25      2.02090105733311     8.13216144563889     2.02090105733311
   26      1.98792545642138    10.18844211323452     0.00000000000000
   27      0.00000000000000     8.12756608025637     0.00000000000000
   28      0.00000000000000    10.15003654607439     6.08818378482795
   29      2.02731931906412     8.12265294382590     6.08818378482795
   30      2.02090105733311    10.15546651232279     4.04420612401701
   31      0.00000000000000     8.11992750284576     4.05644006681014
   32      0.00000000000000    10.18844211323452    10.18844211323452
   33      2.02090105733311     8.13216144563889    10.15546651232279
   34      2.02090105733311    10.15546651232279     8.13216144563889
   35      0.00000000000000     8.11992750284576     8.11992750284576
   36      4.04420612401701     2.02090105733311     2.02090105733311
   37      6.08818378482795     0.00000000000000     2.02633102358151
   38      6.08818378482795     2.02633102358151     0.00000000000000
   39      4.04880148939953     0.00000000000000     0.00000000000000
   40      4.05371462583000     2.02731931906412     6.08818378482795
   41      6.08818378482795     0.00000000000000     6.08818378482795
   42      6.08818378482795     2.02731931906412     4.05371462583000
   43      4.05644006681014     0.00000000000000     4.05644006681014
   44      4.04420612401701     2.02090105733311    10.15546651232279
   45      6.08818378482795     0.00000000000000    10.15003654607439
   46      6.08818378482795     2.02731931906412     8.12265294382590
   47      4.05644006681014     0.00000000000000     8.11992750284576
   48      4.05371462583000     6.08818378482795     2.02731931906412
   49      6.08818378482795     4.05371462583000     2.02731931906412
   50      6.08818378482795     6.08818378482795     0.00000000000000
   51      4.05644006681014     4.05644006681014     0.00000000000000
   52      4.05669279523369     6.08818378482795     6.08818378482795
   53      6.08818378482795     4.05669279523369     6.08818378482795
   54      6.08818378482795     6.08818378482795     4.05669279523369
   55      4.05508203336924     4.05508203336924     4.05508203336924
   56      4.05371462583000     6.08818378482795    10.14904825059178
   57      6.08818378482795     4.05371462583000    10.14904825059178
   58      6.08818378482795     6.08818378482795     8.11967477442222
   59      4.05508203336924     4.05508203336924     8.12128553628666
   60      4.04420612401701    10.15546651232279     2.02090105733311
   61      6.08818378482795     8.12265294382590     2.02731931906412
   62      6.08818378482795    10.15003654607439     0.00000000000000
   63      4.05644006681014     8.11992750284576     0.00000000000000
   64      4.05371462583000    10.14904825059178     6.08818378482795
   65      6.08818378482795     8.11967477442222     6.08818378482795
   66      6.08818378482795    10.14904825059178     4.05371462583000
   67      4.05508203336924     8.12128553628666     4.05508203336924
   68      4.04420612401701    10.15546651232279    10.15546651232279
   69      6.08818378482795     8.12265294382590    10.14904825059178
   70      6.08818378482795    10.14904825059178     8.12265294382590
   71      4.05508203336924     8.12128553628666     8.12128553628666
   72      8.13216144563889     2.02090105733311     2.02090105733311
   73     10.18844211323452     0.00000000000000     1.98792545642138
   74     10.18844211323452     1.98792545642138     0.00000000000000
   75      8.12756608025637     0.00000000000000     0.00000000000000
   76      8.12265294382590     2.02731931906412     6.08818378482795
   77     10.15003654607439     0.00000000000000     6.08818378482795
   78     10.15546651232279     2.02090105733311     4.04420612401701
   79      8.11992750284576     0.00000000000000     4.05644006681014
   80      8.13216144563889     2.02090105733311    10.15546651232279
   81     10.18844211323452     0.00000000000000    10.18844211323452
   82     10.15546651232279     2.02090105733311     8.13216144563889
   83      8.11992750284576     0.00000000000000     8.11992750284576
   84      8.12265294382590     6.08818378482795     2.02731931906412
   85     10.15546651232279     4.04420612401701     2.02090105733311
   86     10.15003654607439     6.08818378482795     0.00000000000000
   87      8.11992750284576     4.05644006681014     0.00000000000000
   88      8.11967477442222     6.08818378482795     6.08818378482795
   89     10.14904825059178     4.05371462583000     6.08818378482795
   90     10.14904825059178     6.08818378482795     4.05371462583000
   91      8.12128553628666     4.05508203336924     4.05508203336924
   92      8.12265294382590     6.08818378482795    10.14904825059178
   93     10.15546651232279     4.04420612401701    10.15546651232279
   94     10.14904825059178     6.08818378482795     8.12265294382590
   95      8.12128553628666     4.05508203336924     8.12128553628666
   96      8.13216144563889    10.15546651232279     2.02090105733311
   97     10.15546651232279     8.13216144563889     2.02090105733311
   98     10.18844211323452    10.18844211323452     0.00000000000000
   99      8.11992750284576     8.11992750284576     0.00000000000000
  100      8.12265294382590    10.14904825059178     6.08818378482795
  101     10.14904825059178     8.12265294382590     6.08818378482795
  102     10.15546651232279    10.15546651232279     4.04420612401701
  103      8.12128553628666     8.12128553628666     4.05508203336924
  104      8.13216144563889    10.15546651232279    10.15546651232279
  105     10.15546651232279     8.13216144563889    10.15546651232279
  106     10.15546651232279    10.15546651232279     8.13216144563889
  107      8.12128553628666     8.12128553628666     8.12128553628666

 cartesian forces (hartree/bohr) at end:
    1      0.00000000000000    -0.08646353425416    -0.08646353425416
    2     -0.08646353425416     0.00000000000000    -0.08646353425416
    3     -0.08646353425416    -0.08646353425416     0.00000000000000
    4      0.00000000000000    -0.01112401169378     0.00000000000000
    5     -0.01112401169378     0.00000000000000     0.00000000000000
    6     -0.02317899201765    -0.02317899201765    -0.03815259296963
    7      0.00000000000000     0.00000000000000    -0.03644810522965
    8      0.00000000000000    -0.08646353425416     0.08646353425416
    9     -0.08646353425416     0.00000000000000     0.08646353425416
   10     -0.02317899201765    -0.02317899201765     0.03815259296963
   11      0.00000000000000     0.00000000000000     0.03644810522965
   12      0.00000000000000     0.00000000000000    -0.01112401169378
   13     -0.02317899201765    -0.03815259296963    -0.02317899201765
   14     -0.01112401169378     0.00000000000000     0.00000000000000
   15      0.00000000000000    -0.03644810522965     0.00000000000000
   16      0.00000000000000     0.00000000000000     0.00000000000000
   17     -0.00968990852394    -0.01121567973590     0.00000000000000
   18     -0.00968990852394     0.00000000000000    -0.01121567973590
   19      0.00000000000000     0.01259469906905     0.01259469906905
   20      0.00000000000000     0.00000000000000     0.01112401169378
   21     -0.02317899201765    -0.03815259296963     0.02317899201765
   22     -0.00968990852394     0.00000000000000     0.01121567973590
   23      0.00000000000000     0.01259469906905    -0.01259469906905
   24      0.00000000000000     0.08646353425416    -0.08646353425416
   25     -0.02317899201765     0.03815259296963    -0.02317899201765
   26     -0.08646353425416     0.08646353425416     0.00000000000000
   27      0.00000000000000     0.03644810522965     0.00000000000000
   28      0.00000000000000     0.01112401169378     0.00000000000000
   29     -0.00968990852394     0.01121567973590     0.00000000000000
   30     -0.02317899201765     0.02317899201765    -0.03815259296963
   31      0.00000000000000    -0.01259469906905     0.01259469906905
   32      0.00000000000000     0.08646353425416     0.08646353425416
   33     -0.02317899201765     0.03815259296963     0.02317899201765
   34     -0.02317899201765     0.02317899201765     0.03815259296963
   35      0.00000000000000    -0.01259469906905    -0.01259469906905
   36     -0.03815259296963    -0.02317899201765    -0.02317899201765
   37      0.00000000000000     0.00000000000000    -0.01112401169378
   38      0.00000000000000    -0.01112401169378     0.00000000000000
   39     -0.03644810522965     0.00000000000000     0.00000000000000
   40     -0.01121567973590    -0.00968990852394     0.00000000000000
   41      0.00000000000000     0.00000000000000     0.00000000000000
   42      0.00000000000000    -0.00968990852394    -0.01121567973590
   43      0.01259469906905     0.00000000000000     0.01259469906905
   44     -0.03815259296963    -0.02317899201765     0.02317899201765
   45      0.00000000000000     0.00000000000000     0.01112401169378
   46      0.00000000000000    -0.00968990852394     0.01121567973590
   47      0.01259469906905     0.00000000000000    -0.01259469906905
   48     -0.01121567973590     0.00000000000000    -0.00968990852394
   49      0.00000000000000    -0.01121567973590    -0.00968990852394
   50      0.00000000000000     0.00000000000000     0.00000000000000
   51      0.01259469906905     0.01259469906905     0.00000000000000
   52     -0.00879600285426     0.00000000000000     0.00000000000000
   53      0.00000000000000    -0.00879600285426     0.00000000000000
   54      0.00000000000000     0.00000000000000    -0.00879600285426
   55     -0.01396658459026    -0.01396658459026    -0.01396658459026
   56     -0.01121567973590     0.00000000000000     0.00968990852394
   57      0.00000000000000    -0.01121567973590     0.00968990852394
   58      0.00000000000000     0.00000000000000     0.00879600285426
   59     -0.01396658459026    -0.01396658459026     0.01396658459026
   60     -0.03815259296963     0.02317899201765    -0.02317899201765
   61      0.00000000000000     0.01121567973590    -0.00968990852394
   62      0.00000000000000     0.01112401169378     0.00000000000000
   63      0.01259469906905    -0.01259469906905     0.00000000000000
   64     -0.01121567973590     0.00968990852394     0.00000000000000
   65      0.00000000000000     0.00879600285426     0.00000000000000
   66      0.00000000000000     0.00968990852394    -0.01121567973590
   67     -0.01396658459026     0.01396658459026    -0.01396658459026
   68     -0.03815259296963     0.02317899201765     0.02317899201765
   69      0.00000000000000     0.01121567973590     0.00968990852394
   70      0.00000000000000     0.00968990852394     0.01121567973590
   71     -0.01396658459026     0.01396658459026     0.01396658459026
   72      0.03815259296963    -0.02317899201765    -0.02317899201765
   73      0.08646353425416     0.00000000000000    -0.08646353425416
   74      0.08646353425416    -0.08646353425416     0.00000000000000
   75      0.03644810522965     0.00000000000000     0.00000000000000
   76      0.01121567973590    -0.00968990852394     0.00000000000000
   77      0.01112401169378     0.00000000000000     0.00000000000000
   78      0.02317899201765    -0.02317899201765    -0.03815259296963
   79     -0.01259469906905     0.00000000000000     0.01259469906905
   80      0.03815259296963    -0.02317899201765     0.02317899201765
   81      0.08646353425416     0.00000000000000     0.08646353425416
   82      0.02317899201765    -0.02317899201765     0.03815259296963
   83     -0.01259469906905     0.00000000000000    -0.01259469906905
   84      0.01121567973590     0.00000000000000    -0.00968990852394
   85      0.02317899201765    -0.03815259296963    -0.02317899201765
   86      0.01112401169378     0.00000000000000     0.00000000000000
   87     -0.01259469906905     0.01259469906905     0.00000000000000
   88      0.00879600285426     0.00000000000000     0.00000000000000
   89      0.00968990852394    -0.01121567973590     0.00000000000000
   90      0.00968990852394     0.00000000000000    -0.01121567973590
   91      0.01396658459026    -0.01396658459026    -0.01396658459026
   92      0.01121567973590     0.00000000000000     0.00968990852394
   93      0.02317899201765    -0.03815259296963     0.02317899201765
   94      0.00968990852394     0.00000000000000     0.01121567973590
   95      0.01396658459026    -0.01396658459026     0.01396658459026
   96      0.03815259296963     0.02317899201765    -0.02317899201765
   97      0.02317899201765     0.03815259296963    -0.02317899201765
   98      0.08646353425416     0.08646353425416     0.00000000000000
   99     -0.01259469906905    -0.01259469906905     0.00000000000000
  100      0.01121567973590     0.00968990852394     0.00000000000000
  101      0.00968990852394     0.01121567973590     0.00000000000000
  102      0.02317899201765     0.02317899201765    -0.03815259296963
  103      0.01396658459026     0.01396658459026    -0.01396658459026
  104      0.03815259296963     0.02317899201765     0.02317899201765
  105      0.02317899201765     0.03815259296963     0.02317899201765
  106      0.02317899201765     0.02317899201765     0.03815259296963
  107      0.01396658459026     0.01396658459026     0.01396658459026
 frms,max,avg= 2.8668655E-02 8.6463534E-02   0.000E+00  0.000E+00  0.000E+00 h/b

 cartesian forces (eV/Angstrom) at end:
    1      0.00000000000000    -4.44613332224043    -4.44613332224042
    2     -4.44613332224042     0.00000000000000    -4.44613332224042
    3     -4.44613332224042    -4.44613332224043     0.00000000000000
    4      0.00000000000000    -0.57201963226874     0.00000000000000
    5     -0.57201963226874     0.00000000000000     0.00000000000000
    6     -1.19191159226355    -1.19191159226355    -1.96188504663165
    7      0.00000000000000     0.00000000000000    -1.87423677035615
    8      0.00000000000000    -4.44613332224043     4.44613332224042
    9     -4.44613332224042     0.00000000000000     4.44613332224042
   10     -1.19191159226355    -1.19191159226355     1.96188504663165
   11      0.00000000000000     0.00000000000000     1.87423677035615
   12      0.00000000000000     0.00000000000000    -0.57201963226874
   13     -1.19191159226355    -1.96188504663165    -1.19191159226355
   14     -0.57201963226874     0.00000000000000     0.00000000000000
   15      0.00000000000000    -1.87423677035615     0.00000000000000
   16      0.00000000000000     0.00000000000000     0.00000000000000
   17     -0.49827508844483    -0.57673339212309     0.00000000000000
   18     -0.49827508844483     0.00000000000000    -0.57673339212309
   19      0.00000000000000     0.64764541141591     0.64764541141591
   20      0.00000000000000     0.00000000000000     0.57201963226874
   21     -1.19191159226355    -1.96188504663165     1.19191159226355
   22     -0.49827508844483     0.00000000000000     0.57673339212309
[...]
                       6.6685959145E-01  3.3314040855E-01  0.0000000000E+00
                       6.6683883580E-01  5.0000000000E-01  5.0000000000E-01
                       8.3350376806E-01  3.3291657817E-01  5.0000000000E-01
                       8.3350376806E-01  5.0000000000E-01  3.3291657817E-01
                       6.6697112171E-01  3.3302887829E-01  3.3302887829E-01
                       6.6708342183E-01  5.0000000000E-01  8.3350376806E-01
                       8.3403087614E-01  3.3213568011E-01  8.3403087614E-01
                       8.3350376806E-01  5.0000000000E-01  6.6708342183E-01
                       6.6697112171E-01  3.3302887829E-01  6.6697112171E-01
                       6.6786431989E-01  8.3403087614E-01  1.6596912386E-01
                       8.3403087614E-01  6.6786431989E-01  1.6596912386E-01
                       8.3673904019E-01  8.3673904019E-01  0.0000000000E+00
                       6.6685959145E-01  6.6685959145E-01  0.0000000000E+00
                       6.6708342183E-01  8.3350376806E-01  5.0000000000E-01
                       8.3350376806E-01  6.6708342183E-01  5.0000000000E-01
                       8.3403087614E-01  8.3403087614E-01  3.3213568011E-01
                       6.6697112171E-01  6.6697112171E-01  3.3302887829E-01
                       6.6786431989E-01  8.3403087614E-01  8.3403087614E-01
                       8.3403087614E-01  6.6786431989E-01  8.3403087614E-01
                       8.3403087614E-01  8.3403087614E-01  6.6786431989E-01
                       6.6697112171E-01  6.6697112171E-01  6.6697112171E-01
            znucl       79.00000

================================================================================

- Total cpu        time (s,m,h):      12479.5      207.99      3.467
- Total wall clock time (s,m,h):      12479.5      207.99      3.467
-
- For major independent code sections, cpu and wall times (sec),
-  as well as % of the time and number of calls for node 0-
- routine                        cpu     %       wall     %      number of calls 
- nonlop(apply)                 12.511   0.1     12.525   0.1           1080
- fourwf(pot)                    6.997   0.1      7.011   0.1           1080
- vtowfk(ssdiag)                 5.887   0.0      5.885   0.0             -1
- vtowfk(contrib)                3.432   0.0      3.432   0.0             10
- rwwf                           2.032   0.0      2.031   0.0              1
- vtorho(4)mkrhpaw               0.982   0.0      0.983   0.0             20
- mkrho/=                        0.898   0.0      0.897   0.0             20
- fourdp                         0.524   0.0      0.522   0.0             54
- nonlop(forstr)                 0.518   0.0      0.519   0.0             18
- pspini                         0.284   0.0      0.284   0.0              1
- invars2                        0.257   0.0      0.257   0.0              1
- stress                         0.249   0.0      0.249   0.0              1
- ewald                          0.233   0.0      0.233   0.0              1
- ewald2                         0.203   0.0      0.203   0.0              1
- abinit(2)                      0.200   0.0      0.199   0.0              1
- forces                         0.111   0.0      0.112   0.0              1
- getghc-other                   0.110   0.0      0.103   0.0             -1
- symrhg(no FFT)                 0.094   0.0      0.095   0.0             10
- mkcore                         0.066   0.0      0.067   0.0              3
- vtorho-kpt loop                0.054   0.0      0.054   0.0             10
- xc:pot/=fourdp                 0.054   0.0      0.054   0.0             11
- vtorho:synchro                 0.041   0.0      0.040   0.0             10
- setsym                         0.040   0.0      0.040   0.0              1
- status                         0.035   0.0      0.033   0.0            322
- vtorho  (1)                    0.027   0.0      0.028   0.0             10
- scfcv-scprqt                   0.009   0.0      0.009   0.0             10
- vtowfk  (1)                    0.006   0.0      0.007   0.0             10
- inwffil                        0.004   0.0      0.004   0.0              1
- kpgsph                         0.000   0.0      0.000   0.0              2
- vtorho:MPI                     0.000   0.0      0.000   0.0             10
- vtowfk3(contrib)               0.000   0.0      0.000   0.0             -1
- cgwf3-O(npw)                   0.000   0.0      0.000   0.0             -1
- 38   others                    0.000   0.0      0.000   0.0
-
- subtotal                      35.860   0.3     35.876   0.3

- For major independent code sections, cpu and wall times (sec),
- as well as % of the total time and number of calls 

- routine                         cpu     %       wall     %      number of calls 
-                                                                  (-1=no count)
- nonlop(apply)               1319.084  10.6   1319.079  10.6         116640
- fourwf(pot)                  783.013   6.3    783.595   6.3         116640
- vtowfk(ssdiag)               636.454   5.1    636.449   5.1           -108
- vtowfk(contrib)              367.599   2.9    367.626   2.9           1080
- rwwf                         219.386   1.8    219.385   1.8            108
- mkrho/=                      109.637   0.9    109.503   0.9           2160
- vtorho(4)mkrhpaw              90.939   0.7     91.011   0.7           2160
- fourdp                        59.295   0.5     59.325   0.5           5832
- nonlop(forstr)                55.413   0.4     55.420   0.4           1944
- pspini                        27.726   0.2     27.727   0.2            108
- invars2                       27.132   0.2     27.129   0.2            108
- stress                        27.002   0.2     27.005   0.2            108
- ewald                         25.844   0.2     25.853   0.2            108
- ewald2                        22.159   0.2     22.166   0.2            108
- abinit(2)                     21.658   0.2     21.661   0.2            108
- forces                        12.231   0.1     12.237   0.1            108
- getghc-other                  11.406   0.1     11.380   0.1           -108
- symrhg(no FFT)                10.202   0.1     10.221   0.1           1080
- vtorho:synchro                 7.418   0.1      7.466   0.1           1080
- mkcore                         7.195   0.1      7.185   0.1            324
- xc:pot/=fourdp                 5.398   0.0      5.410   0.0           1188
- vtorho-kpt loop                4.766   0.0      4.761   0.0           1080
- scfcv-scprqt                   4.073   0.0      4.170   0.0           1080
- vtorho  (1)                    2.489   0.0      2.416   0.0           1080
- setsym                         2.339   0.0      2.359   0.0            108
- inwffil                        0.329   0.0      0.325   0.0            108
- vtowfk  (1)                    0.046   0.0      0.036   0.0           1080
- status                         0.035   0.0      0.033   0.0            322
- kpgsph                         0.027   0.0      0.051   0.0            216
- vtorho:MPI                     0.026   0.0      0.017   0.0           1080
- vtowfk3(contrib)               0.000   0.0      0.000   0.0           -108
- cgwf3-O(npw)                   0.000   0.0      0.000   0.0           -108
- 38   others                    0.000   0.0      0.000   0.0

- subtotal                    3860.321  30.9   3861.001  30.9

 Partitioning of abinit 
- abinit                     12479.527 100.0  12479.543 100.0            108
 
- abinit(1)                     16.398   0.1     16.394   0.1            108
- abinit(2)                     21.658   0.2     21.661   0.2            108
- invars2m                      30.553   0.2     30.562   0.2            108
- abinit(4)                      5.095   0.0      5.113   0.0            108
- abinit(5)                    105.900   0.8    105.867   0.8            108
- driver                     12299.860  98.6  12299.844  98.6            108
- abinit(6)                      0.038   0.0      0.047   0.0            108

- subtotal                   12479.502 100.0  12479.488 100.0

 Partitioning of driver 
- driver                     12299.860  98.6  12299.844  98.6            108
 
- gstateimg                  12298.674  98.6  12298.672  98.6            108

- subtotal                   12298.674  98.6  12298.672  98.6

 Partitioning of gstateimg+gstate 
- gstateimg                  12298.674  98.6  12298.672  98.6            108
 
- gstate->kpgsph                13.155   0.1     13.155   0.1            216
- gstate(pspini)                27.727   0.2     27.728   0.2            108
- gstate  (2)                    3.874   0.0      3.863   0.0            108
- test_ionmov                11838.740  94.9  11838.744  94.9            108
- gstate  (3)                  413.644   3.3    413.645   3.3            108

- subtotal                   12297.141  98.5  12297.135  98.5

 Partitioning of scfcv_core 
- scfcv                      11838.726  94.9  11838.744  94.9            108
 
- scfcv   (1)                    0.792   0.0      0.820   0.0            108
- setvtr                        30.709   0.2     30.719   0.2            216
- setvtr:mkcore                  1.550   0.0      1.545   0.0            108
- stress-mkcore                  2.089   0.0      2.085   0.0            108
- scfcv-read                     0.016   0.0      0.024   0.0           1080
- vtorho                     11595.729  92.9  11595.758  92.9           1080
- etotfor/=forces                0.011   0.0      0.008   0.0           2160
- scfcv-scprqt                   4.073   0.0      4.170   0.0           1080
- newvtr/newrho                 30.122   0.2     30.124   0.2           1080
- scfcv   (6)                  155.141   1.2    155.167   1.2            216
- scfcv :synchro                 5.511   0.0      5.487   0.0            108
- stress                        27.002   0.2     27.005   0.2            108

- subtotal                   11852.744  95.0  11852.912  95.0

 Partitioning of etotfor/rhotov 
- etotfor/=forces                0.011   0.0      0.008   0.0           2160
- rhotov                        14.164   0.1     14.146   0.1           1080
- forces-mkcore                  3.558   0.0      3.557   0.0            108
- forces                        12.231   0.1     12.237   0.1            108

- subtotal                      29.964   0.2     29.948   0.2

 Partitioning of vtorho 
- vtorho                     11595.729  92.9  11595.758  92.9           1080
 
- vtorho  (1)                    2.489   0.0      2.416   0.0           1080
- vtowfk                     11347.496  90.9  11347.517  90.9           1080
- vtorho-kpt loop                4.766   0.0      4.761   0.0           1080
- vtorho:synchro                 7.418   0.1      7.466   0.1           1080
- vtorho:MPI                     0.026   0.0      0.017   0.0           1080
- vtorho  (4)                  233.514   1.9    233.566   1.9           2160

- subtotal                   11595.709  92.9  11595.743  92.9

 Partitioning of vtowfk 
- vtowfk                     11347.496  90.9  11347.517  90.9           1080
 
- lobpcg                     10343.397  82.9  10343.406  82.9           1296
- subdiago                     551.289   4.4    551.256   4.4           1296
- orthon                         0.003   0.0      0.006   0.0           1296
- nonlocalpart                 324.450   2.6    324.426   2.6           1080

- subtotal                   11219.139  89.9  11219.094  89.9

 Partitioning of lobpcg 
- lobpcg                     10343.397  82.9  10343.406  82.9           1296
 
- prep_getghc%lobp            2427.441  19.5   2427.246  19.4         116640
- xprecon%lobpcg                 1.956   0.0      1.955   0.0         116640
- zheegv-dsyegv               1136.194   9.1   1135.833   9.1         209952

- subtotal                    3565.591  28.6   3565.034  28.6

 Partitioning of getghc 
- getghc                      2113.503  16.9   2114.054  16.9         116640
 
- fourwf%getghc                783.013   6.3    783.595   6.3         116640
- nonlop%getghc               1319.084  10.6   1319.079  10.6         116640
- getghc-other                  11.406   0.1     11.380   0.1           -108

- subtotal                    2113.503  16.9   2114.054  16.9

 Partitioning of fourwf 
- fourwf(total )               860.962   6.9    861.705   6.9         135861
 
- fourwf%getghc                783.013   6.3    783.595   6.3         116640
- fourwf%prep_four              77.949   0.6     78.110   0.6          19221

- subtotal                     860.962   6.9    861.705   6.9

 Partitioning of prep_getghc 
- prep_getghc%lobp            2427.441  19.5   2427.246  19.4         116640
 
- getghc%prep_getg            2113.503  16.9   2114.054  16.9         116640
- alltoall%prep_ge             297.875   2.4    297.089   2.4         233280

- subtotal                    2411.379  19.3   2411.143  19.3

 Partitioning of prep_fourwf 
- prep_fourwf                  101.370   0.8    101.369   0.8          19440
 
- fourwf%prep_four              77.949   0.6     78.110   0.6          19221
- alltoall%prep_fo              23.132   0.2     22.967   0.2          19440

- subtotal                     101.080   0.8    101.077   0.8

 Partitioning of sg_fourwf (disabled) 



 Partitioning of mkrho 
- mkrho%vtorho                 142.574   1.1    142.555   1.1           1080
 
- symrhg%mkrho                  32.926   0.3     33.042   0.3           1080
- prep_fourwf%mkrh             101.370   0.8    101.369   0.8          19440

- subtotal                     134.296   1.1    134.411   1.1
-
-Synchronisation (=leave_test) and MPI calls 
- communic.MPI                  87.852   0.7     88.198   0.7        1146852
-
- vtorho:MPI                     0.026   0.0      0.017   0.0           1080
- scfcv :synchro                 5.511   0.0      5.487   0.0            108
- mkrho :synchro                 0.625   0.0      0.678   0.0           1080
- forstrnps:synchr               0.097   0.0      0.108   0.0            216
- vtorho:synchro                 7.418   0.1      7.466   0.1           1080
- inwffil:synchro                0.123   0.0      0.140   0.0            108
- mkrho :MPIrhor                 0.002   0.0      0.003   0.0           1080
- alltoall%back_wf             391.217   3.1    390.602   3.1         135861
- alltoall%forw_wf             189.210   1.5    189.097   1.5         116640
-
- subtotal                     594.229   4.8    593.598   4.8

 Additional information 
- total timab                    0.000   0.0      0.000   0.0        2544364
- fourwf(total )               860.962   6.9    861.705   6.9         135861
- mklocl(2)                      4.215   0.0      4.222   0.0            108
- status                         0.035   0.0      0.033   0.0            322
- newocc                        89.516   0.7     89.561   0.7           1080
- nonlop(forstr)                55.413   0.4     55.420   0.4           1944
- nonlop(total)               1374.497  11.0   1374.499  11.0         118584


 Detailed analysis of some time consuming routines 
                                  tcpu    ncalls  tcpu/ncalls    ndata tcpu/ncalls/ndata
                                 (sec)                (msec)              (microsec)
- fourwf(pot)                  783.013    116640       6.713     73728       0.091
- fourwf(den)                    0.000         0
- fourdp                        59.295      5832      10.167     36864       0.276
- nonlop(apply)               1319.084    116640      11.309      6313       1.791
- nonlop(forces)                 0.000         0
- nonlop(forstr)                55.413      1944      28.505      6313       4.515
- projbd                         0.000         0
- xc:pot/=fourdp                 5.398      1188       4.544     36864       0.123

================================================================================

 Suggested references for the acknowledgment of ABINIT usage.

 The users of ABINIT have little formal obligations with respect to the ABINIT group
 (those specified in the GNU General Public License, http://www.gnu.org/copyleft/gpl.txt).
 However, it is common practice in the scientific literature,
 to acknowledge the efforts of people that have made the research possible.
 In this spirit, please find below suggested citations of work written by ABINIT developers,
 corresponding to implementations inside of ABINIT that you have used in the present run.
 Note also that it will be of great value to readers of publications presenting these results,
 to read papers enabling them to understand the theoretical formalism and details
 of the ABINIT implementation.
 For information on why they are suggested, see also https://docs.abinit.org/theory/acknowledgments.
-
- [1] Large scale ab initio calculations based on three levels of parallelization
- F. Bottin, S. Leroux, A. Knyazev, G. Zerah, Comput. Mat. Science 42, 329, (2008).
- Comment : in case paral_kgb is non-zero. Strong suggestion to cite this paper in your publications.
- This paper is also available at http://www.arxiv.org/abs/0707.3405
-
- [2] ABINIT : First-principles approach of materials and nanosystem properties.
- X. Gonze, B. Amadon, P.-M. Anglade, J.-M. Beuken, F. Bottin, P. Boulanger, F. Bruneval,
- D. Caliste, R. Caracas, M. Cote, T. Deutsch, L. Genovese, Ph. Ghosez, M. Giantomassi
- S. Goedecker, D.R. Hamann, P. Hermet, F. Jollet, G. Jomard, S. Leroux, M. Mancini, S. Mazevet,
- M.J.T. Oliveira, G. Onida, Y. Pouillon, T. Rangel, G.-M. Rignanese, D. Sangalli, R. Shaltaf,
- M. Torrent, M.J. Verstraete, G. Zerah, J.W. Zwanziger
- Computer Phys. Comm. 180, 2582-2615 (2009).
- Comment : the third generic paper describing the ABINIT project.
- Note that a version of this paper, that is not formatted for Computer Phys. Comm. 
- is available at https://www.abinit.org/about/ABINIT_CPC_v10.pdf .
- The licence allows the authors to put it on the Web.
-
- [3] A brief introduction to the ABINIT software package.
- X. Gonze, G.-M. Rignanese, M. Verstraete, J.-M. Beuken, Y. Pouillon, R. Caracas, F. Jollet,
- M. Torrent, G. Zerah, M. Mikami, Ph. Ghosez, M. Veithen, J.-Y. Raty, V. Olevano, F. Bruneval,
- L. Reining, R. Godby, G. Onida, D.R. Hamann, and D.C. Allan.
- Z. Kristallogr. 220, 558-562 (2005).
- Comment : the second generic paper describing the ABINIT project. Note that this paper
- should be cited especially if you are using the GW part of ABINIT, as several authors
- of this part are not in the list of authors of the first or third paper.
- The .pdf of the latter paper is available at https://www.abinit.org/about/zfk_0505-06_558-562.pdf.
- Note that it should not redistributed (Copyright by Oldenburg Wissenshaftverlag,
- the licence allows the authors to put it on the Web).
-
-
- And optionally :
-
- [4] First-principles computation of material properties : the ABINIT software project. 
- X. Gonze, J.-M. Beuken, R. Caracas, F. Detraux, M. Fuchs, G.-M. Rignanese, L. Sindic,
- M. Verstraete, G. Zerah, F. Jollet, M. Torrent, A. Roy, M. Mikami, Ph. Ghosez, J.-Y. Raty, D.C. Allan.
- Computational Materials Science 25, 478-492 (2002). http://dx.doi.org/10.1016/S0927-0256(02)00325-7
- Comment : the original paper describing the ABINIT project.
-
- [5] Fast radix 2, 3, 4 and 5 kernels for Fast Fourier Transformations
- on computers with overlapping multiply-add instructions.
- S. Goedecker, SIAM J. on Scientific Computing 18, 1605 (1997).
-
- Proc.   0 individual time (sec): cpu=        116.0  wall=        116.0

================================================================================

 Calculation completed.
.Delivered    2 WARNINGs and   4 COMMENTs to log file.
+Overall time at end (sec) : cpu=      12518.3  wall=      12518.2
