
.Version 6.10.1 of ABINIT 
.(MPI version, prepared for a x86_64_linux_intel12.0 computer) 

.Copyright (C) 1998-2020 ABINIT group . 
 ABINIT comes with ABSOLUTELY NO WARRANTY.
 It is free software, and you are welcome to redistribute it
 under certain conditions (GNU General Public License,
 see ~abinit/COPYING or http://www.gnu.org/copyleft/gpl.txt).

 ABINIT is a project of the Universite Catholique de Louvain,
 Corning Inc. and other collaborators, see ~abinit/doc/developers/contributors.txt .
 Please read https://docs.abinit.org/theory/acknowledgments for suggested
 acknowledgments of the ABINIT effort.
 For more information, see https://www.abinit.org .

.Starting date : Mon  7 Nov 2011.
- ( at 14h12 )
  
- input  file    -> tgspw_03.in
- output file    -> tgspw_03.out
- root for input  files -> tgspw_03.i
- root for output files -> tgspw_03.o


 Symmetries : space group Pm -3 m (#221); Bravais cP (primitive cubic)
================================================================================
 Values of the parameters that define the memory need of the present run
   intxc =         0  ionmov =         0    iscf =         7 xclevel =         1
  lmnmax =         2   lnmax =         2   mband =       648  mffmem =         1
P  mgfft =        48   mkmem =         1 mpssoang=         3     mpw =        59
  mqgrid =      3001   natom =       107    nfft =     27648    nkpt =         1
  nloalg =         4  nspden =         1 nspinor =         1  nsppol =         1
    nsym =        48  n1xccc =      2501  ntypat =         1  occopt =         3
================================================================================
P This job should need less than                      26.355 Mbytes of memory.
  Rough estimation (10% accuracy) of disk space for files :
  WF disk file :      2.335 Mbytes ; DEN or POT disk file :      0.213 Mbytes.
================================================================================

--------------------------------------------------------------------------------
------------- Echo of variables that govern the present computation ------------
--------------------------------------------------------------------------------
-
- outvars: echo of selected default values                                      
-   accesswff0 =  0 , fftalg0 =401 , wfoptalg0 =  0
-
- outvars: echo of global parameters not present in the input file              
-   nproc =  108
-
 -outvars: echo values of preprocessed input variables --------
        accesswff           1
            acell      2.3010000000E+01  2.3010000000E+01  2.3010000000E+01 Bohr
              amu      1.96966540E+02
     densfor_pred           6
             ecut      5.00000000E+00 Hartree
              kpt      2.50000000E-01  2.50000000E-01  2.50000000E-01
          kptrlen      4.60200000E+01
         kptrlatt      2  0  0   0  2  0   0  0  2
P           mkmem           1
            natom         107
            nband         648
            ngfft          48      48      48
             nkpt           1
           npband          27
            npfft           4
            nstep          20
             nsym          48
           ntypat           1
              occ      2.000000  2.000000  2.000000  2.000000  2.000000  2.000000
                       2.000000  2.000000  2.000000  2.000000  2.000000  2.000000
                       2.000000  2.000000  2.000000  2.000000  2.000000  2.000000
                       2.000000  2.000000  2.000000  2.000000  2.000000  2.000000
                       2.000000  2.000000  2.000000  2.000000  2.000000  2.000000
                       2.000000  2.000000  2.000000  2.000000  2.000000  2.000000
                       2.000000  2.000000  2.000000  2.000000  2.000000  2.000000
                       2.000000  2.000000  2.000000  2.000000  2.000000  2.000000
                       2.000000  2.000000  2.000000  2.000000  2.000000  2.000000
                       2.000000  2.000000  2.000000  2.000000  2.000000  2.000000
                       2.000000  2.000000  2.000000  2.000000  2.000000  2.000000
                       2.000000  2.000000  2.000000  2.000000  2.000000  2.000000
                       2.000000  2.000000  2.000000  2.000000  2.000000  2.000000
                       2.000000  2.000000  2.000000  2.000000  2.000000  2.000000
                       2.000000  2.000000  2.000000  2.000000  2.000000  2.000000
                       2.000000  2.000000  2.000000  2.000000  2.000000  2.000000
                       2.000000  2.000000  2.000000  2.000000  2.000000  2.000000
                       2.000000  2.000000  2.000000  2.000000  2.000000  2.000000
                       2.000000  2.000000  2.000000  2.000000  2.000000  2.000000
                       2.000000  2.000000  2.000000  2.000000  2.000000  2.000000
                       2.000000  2.000000  2.000000  2.000000  2.000000  2.000000
                       2.000000  2.000000  2.000000  2.000000  2.000000  2.000000
                       2.000000  2.000000  2.000000  2.000000  2.000000  2.000000
                       2.000000  2.000000  2.000000  2.000000  2.000000  2.000000
                       2.000000  2.000000  2.000000  2.000000  2.000000  2.000000
                       2.000000  2.000000  2.000000  2.000000  2.000000  2.000000
                       2.000000  2.000000  2.000000  2.000000  2.000000  2.000000
                       2.000000  2.000000  2.000000  2.000000  2.000000  2.000000
                       2.000000  2.000000  2.000000  2.000000  2.000000  2.000000
                       2.000000  2.000000  2.000000  2.000000  2.000000  2.000000
                       2.000000  2.000000  2.000000  2.000000  2.000000  2.000000
                       2.000000  2.000000  2.000000  2.000000  2.000000  2.000000
                       2.000000  2.000000  2.000000  2.000000  2.000000  2.000000
                       2.000000  2.000000  2.000000  2.000000  2.000000  2.000000
                       2.000000  2.000000  2.000000  2.000000  2.000000  2.000000
                       2.000000  2.000000  2.000000  2.000000  2.000000  2.000000
                       2.000000  2.000000  2.000000  2.000000  2.000000  2.000000
                       2.000000  2.000000  2.000000  2.000000  2.000000  2.000000
                       2.000000  2.000000  2.000000  2.000000  2.000000  2.000000
                       2.000000  2.000000  2.000000  2.000000  2.000000  2.000000
                       2.000000  2.000000  2.000000  2.000000  2.000000  2.000000
                       2.000000  2.000000  2.000000  2.000000  2.000000  2.000000
                       2.000000  2.000000  2.000000  2.000000  2.000000  2.000000
                       2.000000  2.000000  2.000000  2.000000  2.000000  2.000000
                       2.000000  2.000000  2.000000  2.000000  2.000000  2.000000
                       2.000000  2.000000  2.000000  2.000000  2.000000  2.000000
                       2.000000  2.000000  2.000000  2.000000  2.000000  2.000000
                       2.000000  2.000000  2.000000  2.000000  2.000000  2.000000
                       2.000000  2.000000  2.000000  2.000000  2.000000  2.000000
                       2.000000  2.000000  2.000000  2.000000  2.000000  2.000000
                       2.000000  2.000000  2.000000  2.000000  2.000000  2.000000
                       2.000000  2.000000  2.000000  2.000000  2.000000  2.000000
                       2.000000  2.000000  2.000000  2.000000  2.000000  2.000000
                       2.000000  2.000000  2.000000  2.000000  2.000000  2.000000
                       2.000000  2.000000  2.000000  2.000000  2.000000  2.000000
                       2.000000  2.000000  2.000000  2.000000  2.000000  2.000000
                       2.000000  2.000000  2.000000  2.000000  2.000000  2.000000
                       2.000000  2.000000  2.000000  2.000000  2.000000  2.000000
                       2.000000  2.000000  2.000000  2.000000  2.000000  2.000000
                       2.000000  2.000000  2.000000  2.000000  2.000000  2.000000
                       2.000000  2.000000  2.000000  2.000000  2.000000  2.000000
                       2.000000  2.000000  2.000000  2.000000  2.000000  2.000000
                       2.000000  2.000000  2.000000  2.000000  2.000000  2.000000
                       2.000000  2.000000  2.000000  2.000000  2.000000  2.000000
                       2.000000  2.000000  2.000000  2.000000  2.000000  2.000000
                       2.000000  2.000000  2.000000  2.000000  2.000000  2.000000
                       2.000000  2.000000  2.000000  2.000000  2.000000  2.000000
                       2.000000  2.000000  2.000000  2.000000  2.000000  2.000000
                       2.000000  2.000000  2.000000  2.000000  2.000000  2.000000
                       2.000000  2.000000  2.000000  2.000000  2.000000  2.000000
                       2.000000  2.000000  2.000000  2.000000  2.000000  2.000000
                       2.000000  2.000000  2.000000  2.000000  2.000000  2.000000
                       2.000000  2.000000  2.000000  2.000000  2.000000  2.000000
                       2.000000  2.000000  2.000000  2.000000  2.000000  2.000000
                       2.000000  2.000000  2.000000  2.000000  2.000000  2.000000
                       2.000000  2.000000  2.000000  2.000000  2.000000  2.000000
                       2.000000  2.000000  2.000000  2.000000  2.000000  2.000000
                       2.000000  2.000000  2.000000  2.000000  2.000000  2.000000
                       2.000000  2.000000  2.000000  2.000000  2.000000  2.000000
                       2.000000  2.000000  2.000000  2.000000  2.000000  2.000000
                       2.000000  2.000000  2.000000  2.000000  2.000000  2.000000
                       2.000000  2.000000  2.000000  2.000000  2.000000  2.000000
                       2.000000  2.000000  2.000000  2.000000  2.000000  2.000000
                       2.000000  2.000000  2.000000  2.000000  2.000000  2.000000
                       2.000000  2.000000  2.000000  2.000000  2.000000  2.000000
                       2.000000  2.000000  2.000000  2.000000  2.000000  2.000000
                       2.000000  2.000000  2.000000  2.000000  2.000000  2.000000
                       2.000000  2.000000  2.000000  2.000000  2.000000  2.000000
                       2.000000  2.000000  2.000000  2.000000  2.000000  2.000000
                       2.000000  2.000000  2.000000  2.000000  2.000000  2.000000
                       2.000000  2.000000  2.000000  2.000000  2.000000  2.000000
                       2.000000  2.000000  2.000000  2.000000  2.000000  2.000000
                       2.000000  2.000000  2.000000  2.000000  2.000000  2.000000
                       2.000000  2.000000  2.000000  2.000000  2.000000  2.000000
                       2.000000  2.000000  2.000000  2.000000  2.000000  2.000000
                       2.000000  2.000000  2.000000  2.000000  2.000000  2.000000
                       2.000000  2.000000  2.000000  2.000000  2.000000  2.000000
                       2.000000  2.000000  2.000000  2.000000  2.000000  2.000000
                       1.000000  0.000000  0.000000  0.000000  0.000000  0.000000
                       0.000000  0.000000  0.000000  0.000000  0.000000  0.000000
                       0.000000  0.000000  0.000000  0.000000  0.000000  0.000000
                       0.000000  0.000000  0.000000  0.000000  0.000000  0.000000
                       0.000000  0.000000  0.000000  0.000000  0.000000  0.000000
                       0.000000  0.000000  0.000000  0.000000  0.000000  0.000000
                       0.000000  0.000000  0.000000  0.000000  0.000000  0.000000
                       0.000000  0.000000  0.000000  0.000000  0.000000  0.000000
                       0.000000  0.000000  0.000000  0.000000  0.000000  0.000000
                       0.000000  0.000000  0.000000  0.000000  0.000000  0.000000
           occopt           3
           ortalg          -2
        paral_kgb           1
           prteig           0
           shiftk      5.00000000E-01  5.00000000E-01  5.00000000E-01
          spgroup         221
           symrel      1  0  0   0  1  0   0  0  1      -1  0  0   0 -1  0   0  0 -1
                      -1  0  0   0  1  0   0  0 -1       1  0  0   0 -1  0   0  0  1
                      -1  0  0   0 -1  0   0  0  1       1  0  0   0  1  0   0  0 -1
                       1  0  0   0 -1  0   0  0 -1      -1  0  0   0  1  0   0  0  1
                       0  1  0   1  0  0   0  0  1       0 -1  0  -1  0  0   0  0 -1
                       0 -1  0   1  0  0   0  0 -1       0  1  0  -1  0  0   0  0  1
                       0 -1  0  -1  0  0   0  0  1       0  1  0   1  0  0   0  0 -1
                       0  1  0  -1  0  0   0  0 -1       0 -1  0   1  0  0   0  0  1
                       0  0  1   1  0  0   0  1  0       0  0 -1  -1  0  0   0 -1  0
                       0  0 -1   1  0  0   0 -1  0       0  0  1  -1  0  0   0  1  0
                       0  0 -1  -1  0  0   0  1  0       0  0  1   1  0  0   0 -1  0
                       0  0  1  -1  0  0   0 -1  0       0  0 -1   1  0  0   0  1  0
                       1  0  0   0  0  1   0  1  0      -1  0  0   0  0 -1   0 -1  0
                      -1  0  0   0  0  1   0 -1  0       1  0  0   0  0 -1   0  1  0
                      -1  0  0   0  0 -1   0  1  0       1  0  0   0  0  1   0 -1  0
                       1  0  0   0  0 -1   0 -1  0      -1  0  0   0  0  1   0  1  0
                       0  1  0   0  0  1   1  0  0       0 -1  0   0  0 -1  -1  0  0
                       0 -1  0   0  0  1  -1  0  0       0  1  0   0  0 -1   1  0  0
                       0 -1  0   0  0 -1   1  0  0       0  1  0   0  0  1  -1  0  0
                       0  1  0   0  0 -1  -1  0  0       0 -1  0   0  0  1   1  0  0
                       0  0  1   0  1  0   1  0  0       0  0 -1   0 -1  0  -1  0  0
                       0  0 -1   0  1  0  -1  0  0       0  0  1   0 -1  0   1  0  0
                       0  0 -1   0 -1  0   1  0  0       0  0  1   0  1  0  -1  0  0
                       0  0  1   0 -1  0  -1  0  0       0  0 -1   0  1  0   1  0  0
           timopt          -3
           toldfe      1.00000000E-07 Hartree
           tsmear      2.00000000E-03 Hartree
            typat      1  1  1  1  1  1  1  1  1  1  1  1  1  1  1  1  1  1  1  1
                       1  1  1  1  1  1  1  1  1  1  1  1  1  1  1  1  1  1  1  1
                       1  1  1  1  1  1  1  1  1  1  1  1  1  1  1  1  1  1  1  1
                       1  1  1  1  1  1  1  1  1  1  1  1  1  1  1  1  1  1  1  1
                       1  1  1  1  1  1  1  1  1  1  1  1  1  1  1  1  1  1  1  1
                       1  1  1  1  1  1  1
         wfoptalg         114
           xangst      0.0000000000E+00  1.9879254564E+00  1.9879254564E+00
                       1.9879254564E+00  0.0000000000E+00  1.9879254564E+00
                       1.9879254564E+00  1.9879254564E+00  0.0000000000E+00
                       0.0000000000E+00  2.0263310236E+00  6.0881837848E+00
                       2.0263310236E+00  0.0000000000E+00  6.0881837848E+00
                       2.0209010573E+00  2.0209010573E+00  4.0442061240E+00
                       0.0000000000E+00  0.0000000000E+00  4.0488014894E+00
                       0.0000000000E+00  1.9879254564E+00  1.0188442113E+01
                       1.9879254564E+00  0.0000000000E+00  1.0188442113E+01
                       2.0209010573E+00  2.0209010573E+00  8.1321614456E+00
                       0.0000000000E+00  0.0000000000E+00  8.1275660803E+00
                       0.0000000000E+00  6.0881837848E+00  2.0263310236E+00
                       2.0209010573E+00  4.0442061240E+00  2.0209010573E+00
                       2.0263310236E+00  6.0881837848E+00  0.0000000000E+00
                       0.0000000000E+00  4.0488014894E+00  0.0000000000E+00
                       0.0000000000E+00  6.0881837848E+00  6.0881837848E+00
                       2.0273193191E+00  4.0537146258E+00  6.0881837848E+00
                       2.0273193191E+00  6.0881837848E+00  4.0537146258E+00
                       0.0000000000E+00  4.0564400668E+00  4.0564400668E+00
                       0.0000000000E+00  6.0881837848E+00  1.0150036546E+01
                       2.0209010573E+00  4.0442061240E+00  1.0155466512E+01
                       2.0273193191E+00  6.0881837848E+00  8.1226529438E+00
                       0.0000000000E+00  4.0564400668E+00  8.1199275028E+00
                       0.0000000000E+00  1.0188442113E+01  1.9879254564E+00
                       2.0209010573E+00  8.1321614456E+00  2.0209010573E+00
                       1.9879254564E+00  1.0188442113E+01  0.0000000000E+00
                       0.0000000000E+00  8.1275660803E+00  0.0000000000E+00
                       0.0000000000E+00  1.0150036546E+01  6.0881837848E+00
                       2.0273193191E+00  8.1226529438E+00  6.0881837848E+00
                       2.0209010573E+00  1.0155466512E+01  4.0442061240E+00
                       0.0000000000E+00  8.1199275028E+00  4.0564400668E+00
                       0.0000000000E+00  1.0188442113E+01  1.0188442113E+01
                       2.0209010573E+00  8.1321614456E+00  1.0155466512E+01
                       2.0209010573E+00  1.0155466512E+01  8.1321614456E+00
                       0.0000000000E+00  8.1199275028E+00  8.1199275028E+00
                       4.0442061240E+00  2.0209010573E+00  2.0209010573E+00
                       6.0881837848E+00  0.0000000000E+00  2.0263310236E+00
                       6.0881837848E+00  2.0263310236E+00  0.0000000000E+00
                       4.0488014894E+00  0.0000000000E+00  0.0000000000E+00
                       4.0537146258E+00  2.0273193191E+00  6.0881837848E+00
                       6.0881837848E+00  0.0000000000E+00  6.0881837848E+00
                       6.0881837848E+00  2.0273193191E+00  4.0537146258E+00
                       4.0564400668E+00  0.0000000000E+00  4.0564400668E+00
                       4.0442061240E+00  2.0209010573E+00  1.0155466512E+01
                       6.0881837848E+00  0.0000000000E+00  1.0150036546E+01
                       6.0881837848E+00  2.0273193191E+00  8.1226529438E+00
                       4.0564400668E+00  0.0000000000E+00  8.1199275028E+00
                       4.0537146258E+00  6.0881837848E+00  2.0273193191E+00
                       6.0881837848E+00  4.0537146258E+00  2.0273193191E+00
                       6.0881837848E+00  6.0881837848E+00  0.0000000000E+00
                       4.0564400668E+00  4.0564400668E+00  0.0000000000E+00
                       4.0566927952E+00  6.0881837848E+00  6.0881837848E+00
                       6.0881837848E+00  4.0566927952E+00  6.0881837848E+00
                       6.0881837848E+00  6.0881837848E+00  4.0566927952E+00
                       4.0550820334E+00  4.0550820334E+00  4.0550820334E+00
                       4.0537146258E+00  6.0881837848E+00  1.0149048251E+01
                       6.0881837848E+00  4.0537146258E+00  1.0149048251E+01
                       6.0881837848E+00  6.0881837848E+00  8.1196747744E+00
                       4.0550820334E+00  4.0550820334E+00  8.1212855363E+00
                       4.0442061240E+00  1.0155466512E+01  2.0209010573E+00
                       6.0881837848E+00  8.1226529438E+00  2.0273193191E+00
                       6.0881837848E+00  1.0150036546E+01  0.0000000000E+00
                       4.0564400668E+00  8.1199275028E+00  0.0000000000E+00
                       4.0537146258E+00  1.0149048251E+01  6.0881837848E+00
                       6.0881837848E+00  8.1196747744E+00  6.0881837848E+00
                       6.0881837848E+00  1.0149048251E+01  4.0537146258E+00
                       4.0550820334E+00  8.1212855363E+00  4.0550820334E+00
                       4.0442061240E+00  1.0155466512E+01  1.0155466512E+01
                       6.0881837848E+00  8.1226529438E+00  1.0149048251E+01
                       6.0881837848E+00  1.0149048251E+01  8.1226529438E+00
                       4.0550820334E+00  8.1212855363E+00  8.1212855363E+00
                       8.1321614456E+00  2.0209010573E+00  2.0209010573E+00
                       1.0188442113E+01  0.0000000000E+00  1.9879254564E+00
                       1.0188442113E+01  1.9879254564E+00  0.0000000000E+00
                       8.1275660803E+00  0.0000000000E+00  0.0000000000E+00
                       8.1226529438E+00  2.0273193191E+00  6.0881837848E+00
                       1.0150036546E+01  0.0000000000E+00  6.0881837848E+00
                       1.0155466512E+01  2.0209010573E+00  4.0442061240E+00
                       8.1199275028E+00  0.0000000000E+00  4.0564400668E+00
                       8.1321614456E+00  2.0209010573E+00  1.0155466512E+01
                       1.0188442113E+01  0.0000000000E+00  1.0188442113E+01
                       1.0155466512E+01  2.0209010573E+00  8.1321614456E+00
                       8.1199275028E+00  0.0000000000E+00  8.1199275028E+00
                       8.1226529438E+00  6.0881837848E+00  2.0273193191E+00
                       1.0155466512E+01  4.0442061240E+00  2.0209010573E+00
                       1.0150036546E+01  6.0881837848E+00  0.0000000000E+00
                       8.1199275028E+00  4.0564400668E+00  0.0000000000E+00
                       8.1196747744E+00  6.0881837848E+00  6.0881837848E+00
                       1.0149048251E+01  4.0537146258E+00  6.0881837848E+00
                       1.0149048251E+01  6.0881837848E+00  4.0537146258E+00
                       8.1212855363E+00  4.0550820334E+00  4.0550820334E+00
                       8.1226529438E+00  6.0881837848E+00  1.0149048251E+01
                       1.0155466512E+01  4.0442061240E+00  1.0155466512E+01
                       1.0149048251E+01  6.0881837848E+00  8.1226529438E+00
                       8.1212855363E+00  4.0550820334E+00  8.1212855363E+00
                       8.1321614456E+00  1.0155466512E+01  2.0209010573E+00
                       1.0155466512E+01  8.1321614456E+00  2.0209010573E+00
                       1.0188442113E+01  1.0188442113E+01  0.0000000000E+00
                       8.1199275028E+00  8.1199275028E+00  0.0000000000E+00
                       8.1226529438E+00  1.0149048251E+01  6.0881837848E+00
                       1.0149048251E+01  8.1226529438E+00  6.0881837848E+00
                       1.0155466512E+01  1.0155466512E+01  4.0442061240E+00
                       8.1212855363E+00  8.1212855363E+00  4.0550820334E+00
                       8.1321614456E+00  1.0155466512E+01  1.0155466512E+01
                       1.0155466512E+01  8.1321614456E+00  1.0155466512E+01
                       1.0155466512E+01  1.0155466512E+01  8.1321614456E+00
                       8.1212855363E+00  8.1212855363E+00  8.1212855363E+00
            xcart      0.0000000000E+00  3.7566346852E+00  3.7566346852E+00
                       3.7566346852E+00  0.0000000000E+00  3.7566346852E+00
                       3.7566346852E+00  3.7566346852E+00  0.0000000000E+00
                       0.0000000000E+00  3.8292106891E+00  1.1505000000E+01
                       3.8292106891E+00  0.0000000000E+00  1.1505000000E+01
                       3.8189495400E+00  3.8189495400E+00  7.6424419993E+00
                       0.0000000000E+00  0.0000000000E+00  7.6511259814E+00
                       0.0000000000E+00  3.7566346852E+00  1.9253365315E+01
                       3.7566346852E+00  0.0000000000E+00  1.9253365315E+01
                       3.8189495400E+00  3.8189495400E+00  1.5367558001E+01
                       0.0000000000E+00  0.0000000000E+00  1.5358874019E+01
                       0.0000000000E+00  1.1505000000E+01  3.8292106891E+00
                       3.8189495400E+00  7.6424419993E+00  3.8189495400E+00
                       3.8292106891E+00  1.1505000000E+01  0.0000000000E+00
                       0.0000000000E+00  7.6511259814E+00  0.0000000000E+00
                       0.0000000000E+00  1.1505000000E+01  1.1505000000E+01
                       3.8310782969E+00  7.6604104637E+00  1.1505000000E+01
                       3.8310782969E+00  1.1505000000E+01  7.6604104637E+00
                       0.0000000000E+00  7.6655608007E+00  7.6655608007E+00
                       0.0000000000E+00  1.1505000000E+01  1.9180789311E+01
                       3.8189495400E+00  7.6424419993E+00  1.9191050460E+01
                       3.8310782969E+00  1.1505000000E+01  1.5349589536E+01
                       0.0000000000E+00  7.6655608007E+00  1.5344439199E+01
                       0.0000000000E+00  1.9253365315E+01  3.7566346852E+00
                       3.8189495400E+00  1.5367558001E+01  3.8189495400E+00
                       3.7566346852E+00  1.9253365315E+01  0.0000000000E+00
                       0.0000000000E+00  1.5358874019E+01  0.0000000000E+00
                       0.0000000000E+00  1.9180789311E+01  1.1505000000E+01
                       3.8310782969E+00  1.5349589536E+01  1.1505000000E+01
                       3.8189495400E+00  1.9191050460E+01  7.6424419993E+00
                       0.0000000000E+00  1.5344439199E+01  7.6655608007E+00
                       0.0000000000E+00  1.9253365315E+01  1.9253365315E+01
                       3.8189495400E+00  1.5367558001E+01  1.9191050460E+01
                       3.8189495400E+00  1.9191050460E+01  1.5367558001E+01
                       0.0000000000E+00  1.5344439199E+01  1.5344439199E+01
                       7.6424419993E+00  3.8189495400E+00  3.8189495400E+00
                       1.1505000000E+01  0.0000000000E+00  3.8292106891E+00
                       1.1505000000E+01  3.8292106891E+00  0.0000000000E+00
                       7.6511259814E+00  0.0000000000E+00  0.0000000000E+00
                       7.6604104637E+00  3.8310782969E+00  1.1505000000E+01
                       1.1505000000E+01  0.0000000000E+00  1.1505000000E+01
                       1.1505000000E+01  3.8310782969E+00  7.6604104637E+00
                       7.6655608007E+00  0.0000000000E+00  7.6655608007E+00
                       7.6424419993E+00  3.8189495400E+00  1.9191050460E+01
                       1.1505000000E+01  0.0000000000E+00  1.9180789311E+01
                       1.1505000000E+01  3.8310782969E+00  1.5349589536E+01
                       7.6655608007E+00  0.0000000000E+00  1.5344439199E+01
                       7.6604104637E+00  1.1505000000E+01  3.8310782969E+00
                       1.1505000000E+01  7.6604104637E+00  3.8310782969E+00
                       1.1505000000E+01  1.1505000000E+01  0.0000000000E+00
                       7.6655608007E+00  7.6655608007E+00  0.0000000000E+00
                       7.6660383882E+00  1.1505000000E+01  1.1505000000E+01
                       1.1505000000E+01  7.6660383882E+00  1.1505000000E+01
                       1.1505000000E+01  1.1505000000E+01  7.6660383882E+00
                       7.6629944895E+00  7.6629944895E+00  7.6629944895E+00
                       7.6604104637E+00  1.1505000000E+01  1.9178921703E+01
                       1.1505000000E+01  7.6604104637E+00  1.9178921703E+01
                       1.1505000000E+01  1.1505000000E+01  1.5343961612E+01
                       7.6629944895E+00  7.6629944895E+00  1.5347005511E+01
                       7.6424419993E+00  1.9191050460E+01  3.8189495400E+00
                       1.1505000000E+01  1.5349589536E+01  3.8310782969E+00
                       1.1505000000E+01  1.9180789311E+01  0.0000000000E+00
                       7.6655608007E+00  1.5344439199E+01  0.0000000000E+00
                       7.6604104637E+00  1.9178921703E+01  1.1505000000E+01
                       1.1505000000E+01  1.5343961612E+01  1.1505000000E+01
                       1.1505000000E+01  1.9178921703E+01  7.6604104637E+00
                       7.6629944895E+00  1.5347005511E+01  7.6629944895E+00
                       7.6424419993E+00  1.9191050460E+01  1.9191050460E+01
                       1.1505000000E+01  1.5349589536E+01  1.9178921703E+01
                       1.1505000000E+01  1.9178921703E+01  1.5349589536E+01
                       7.6629944895E+00  1.5347005511E+01  1.5347005511E+01
                       1.5367558001E+01  3.8189495400E+00  3.8189495400E+00
                       1.9253365315E+01  0.0000000000E+00  3.7566346852E+00
                       1.9253365315E+01  3.7566346852E+00  0.0000000000E+00
                       1.5358874019E+01  0.0000000000E+00  0.0000000000E+00
                       1.5349589536E+01  3.8310782969E+00  1.1505000000E+01
                       1.9180789311E+01  0.0000000000E+00  1.1505000000E+01
                       1.9191050460E+01  3.8189495400E+00  7.6424419993E+00
                       1.5344439199E+01  0.0000000000E+00  7.6655608007E+00
                       1.5367558001E+01  3.8189495400E+00  1.9191050460E+01
                       1.9253365315E+01  0.0000000000E+00  1.9253365315E+01
                       1.9191050460E+01  3.8189495400E+00  1.5367558001E+01
                       1.5344439199E+01  0.0000000000E+00  1.5344439199E+01
                       1.5349589536E+01  1.1505000000E+01  3.8310782969E+00
                       1.9191050460E+01  7.6424419993E+00  3.8189495400E+00
                       1.9180789311E+01  1.1505000000E+01  0.0000000000E+00
                       1.5344439199E+01  7.6655608007E+00  0.0000000000E+00
                       1.5343961612E+01  1.1505000000E+01  1.1505000000E+01
                       1.9178921703E+01  7.6604104637E+00  1.1505000000E+01
                       1.9178921703E+01  1.1505000000E+01  7.6604104637E+00
                       1.5347005511E+01  7.6629944895E+00  7.6629944895E+00
                       1.5349589536E+01  1.1505000000E+01  1.9178921703E+01
                       1.9191050460E+01  7.6424419993E+00  1.9191050460E+01
                       1.9178921703E+01  1.1505000000E+01  1.5349589536E+01
                       1.5347005511E+01  7.6629944895E+00  1.5347005511E+01
                       1.5367558001E+01  1.9191050460E+01  3.8189495400E+00
                       1.9191050460E+01  1.5367558001E+01  3.8189495400E+00
                       1.9253365315E+01  1.9253365315E+01  0.0000000000E+00
                       1.5344439199E+01  1.5344439199E+01  0.0000000000E+00
                       1.5349589536E+01  1.9178921703E+01  1.1505000000E+01
                       1.9178921703E+01  1.5349589536E+01  1.1505000000E+01
                       1.9191050460E+01  1.9191050460E+01  7.6424419993E+00
                       1.5347005511E+01  1.5347005511E+01  7.6629944895E+00
                       1.5367558001E+01  1.9191050460E+01  1.9191050460E+01
                       1.9191050460E+01  1.5367558001E+01  1.9191050460E+01
                       1.9191050460E+01  1.9191050460E+01  1.5367558001E+01
                       1.5347005511E+01  1.5347005511E+01  1.5347005511E+01
             xred      0.0000000000E+00  1.6326095981E-01  1.6326095981E-01
                       1.6326095981E-01  0.0000000000E+00  1.6326095981E-01
                       1.6326095981E-01  1.6326095981E-01  0.0000000000E+00
                       0.0000000000E+00  1.6641506689E-01  5.0000000000E-01
                       1.6641506689E-01  0.0000000000E+00  5.0000000000E-01
                       1.6596912386E-01  1.6596912386E-01  3.3213568011E-01
                       0.0000000000E+00  0.0000000000E+00  3.3251308046E-01
                       0.0000000000E+00  1.6326095981E-01  8.3673904019E-01
                       1.6326095981E-01  0.0000000000E+00  8.3673904019E-01
                       1.6596912386E-01  1.6596912386E-01  6.6786431989E-01
                       0.0000000000E+00  0.0000000000E+00  6.6748691954E-01
                       0.0000000000E+00  5.0000000000E-01  1.6641506689E-01
                       1.6596912386E-01  3.3213568011E-01  1.6596912386E-01
                       1.6641506689E-01  5.0000000000E-01  0.0000000000E+00
                       0.0000000000E+00  3.3251308046E-01  0.0000000000E+00
                       0.0000000000E+00  5.0000000000E-01  5.0000000000E-01
                       1.6649623194E-01  3.3291657817E-01  5.0000000000E-01
                       1.6649623194E-01  5.0000000000E-01  3.3291657817E-01
                       0.0000000000E+00  3.3314040855E-01  3.3314040855E-01
                       0.0000000000E+00  5.0000000000E-01  8.3358493311E-01
                       1.6596912386E-01  3.3213568011E-01  8.3403087614E-01
                       1.6649623194E-01  5.0000000000E-01  6.6708342183E-01
                       0.0000000000E+00  3.3314040855E-01  6.6685959145E-01
                       0.0000000000E+00  8.3673904019E-01  1.6326095981E-01
                       1.6596912386E-01  6.6786431989E-01  1.6596912386E-01
                       1.6326095981E-01  8.3673904019E-01  0.0000000000E+00
                       0.0000000000E+00  6.6748691954E-01  0.0000000000E+00
                       0.0000000000E+00  8.3358493311E-01  5.0000000000E-01
                       1.6649623194E-01  6.6708342183E-01  5.0000000000E-01
                       1.6596912386E-01  8.3403087614E-01  3.3213568011E-01
                       0.0000000000E+00  6.6685959145E-01  3.3314040855E-01
                       0.0000000000E+00  8.3673904019E-01  8.3673904019E-01
                       1.6596912386E-01  6.6786431989E-01  8.3403087614E-01
                       1.6596912386E-01  8.3403087614E-01  6.6786431989E-01
                       0.0000000000E+00  6.6685959145E-01  6.6685959145E-01
                       3.3213568011E-01  1.6596912386E-01  1.6596912386E-01
                       5.0000000000E-01  0.0000000000E+00  1.6641506689E-01
                       5.0000000000E-01  1.6641506689E-01  0.0000000000E+00
                       3.3251308046E-01  0.0000000000E+00  0.0000000000E+00
                       3.3291657817E-01  1.6649623194E-01  5.0000000000E-01
                       5.0000000000E-01  0.0000000000E+00  5.0000000000E-01
                       5.0000000000E-01  1.6649623194E-01  3.3291657817E-01
                       3.3314040855E-01  0.0000000000E+00  3.3314040855E-01
                       3.3213568011E-01  1.6596912386E-01  8.3403087614E-01
                       5.0000000000E-01  0.0000000000E+00  8.3358493311E-01
                       5.0000000000E-01  1.6649623194E-01  6.6708342183E-01
                       3.3314040855E-01  0.0000000000E+00  6.6685959145E-01
                       3.3291657817E-01  5.0000000000E-01  1.6649623194E-01
                       5.0000000000E-01  3.3291657817E-01  1.6649623194E-01
                       5.0000000000E-01  5.0000000000E-01  0.0000000000E+00
                       3.3314040855E-01  3.3314040855E-01  0.0000000000E+00
                       3.3316116420E-01  5.0000000000E-01  5.0000000000E-01
                       5.0000000000E-01  3.3316116420E-01  5.0000000000E-01
                       5.0000000000E-01  5.0000000000E-01  3.3316116420E-01
                       3.3302887829E-01  3.3302887829E-01  3.3302887829E-01
                       3.3291657817E-01  5.0000000000E-01  8.3350376806E-01
                       5.0000000000E-01  3.3291657817E-01  8.3350376806E-01
                       5.0000000000E-01  5.0000000000E-01  6.6683883580E-01
                       3.3302887829E-01  3.3302887829E-01  6.6697112171E-01
                       3.3213568011E-01  8.3403087614E-01  1.6596912386E-01
                       5.0000000000E-01  6.6708342183E-01  1.6649623194E-01
                       5.0000000000E-01  8.3358493311E-01  0.0000000000E+00
                       3.3314040855E-01  6.6685959145E-01  0.0000000000E+00
                       3.3291657817E-01  8.3350376806E-01  5.0000000000E-01
                       5.0000000000E-01  6.6683883580E-01  5.0000000000E-01
                       5.0000000000E-01  8.3350376806E-01  3.3291657817E-01
                       3.3302887829E-01  6.6697112171E-01  3.3302887829E-01
                       3.3213568011E-01  8.3403087614E-01  8.3403087614E-01
                       5.0000000000E-01  6.6708342183E-01  8.3350376806E-01
                       5.0000000000E-01  8.3350376806E-01  6.6708342183E-01
                       3.3302887829E-01  6.6697112171E-01  6.6697112171E-01
                       6.6786431989E-01  1.6596912386E-01  1.6596912386E-01
                       8.3673904019E-01  0.0000000000E+00  1.6326095981E-01
                       8.3673904019E-01  1.6326095981E-01  0.0000000000E+00
                       6.6748691954E-01  0.0000000000E+00  0.0000000000E+00
                       6.6708342183E-01  1.6649623194E-01  5.0000000000E-01
                       8.3358493311E-01  0.0000000000E+00  5.0000000000E-01
                       8.3403087614E-01  1.6596912386E-01  3.3213568011E-01
                       6.6685959145E-01  0.0000000000E+00  3.3314040855E-01
                       6.6786431989E-01  1.6596912386E-01  8.3403087614E-01
                       8.3673904019E-01  0.0000000000E+00  8.3673904019E-01
                       8.3403087614E-01  1.6596912386E-01  6.6786431989E-01
                       6.6685959145E-01  0.0000000000E+00  6.6685959145E-01
                       6.6708342183E-01  5.0000000000E-01  1.6649623194E-01
                       8.3403087614E-01  3.3213568011E-01  1.6596912386E-01
                       8.3358493311E-01  5.0000000000E-01  0.0000000000E+00
                       6.6685959145E-01  3.3314040855E-01  0.0000000000E+00
                       6.6683883580E-01  5.0000000000E-01  5.0000000000E-01
                       8.3350376806E-01  3.3291657817E-01  5.0000000000E-01
                       8.3350376806E-01  5.0000000000E-01  3.3291657817E-01
                       6.6697112171E-01  3.3302887829E-01  3.3302887829E-01
                       6.6708342183E-01  5.0000000000E-01  8.3350376806E-01
                       8.3403087614E-01  3.3213568011E-01  8.3403087614E-01
                       8.3350376806E-01  5.0000000000E-01  6.6708342183E-01
                       6.6697112171E-01  3.3302887829E-01  6.6697112171E-01
                       6.6786431989E-01  8.3403087614E-01  1.6596912386E-01
                       8.3403087614E-01  6.6786431989E-01  1.6596912386E-01
                       8.3673904019E-01  8.3673904019E-01  0.0000000000E+00
                       6.6685959145E-01  6.6685959145E-01  0.0000000000E+00
                       6.6708342183E-01  8.3350376806E-01  5.0000000000E-01
                       8.3350376806E-01  6.6708342183E-01  5.0000000000E-01
                       8.3403087614E-01  8.3403087614E-01  3.3213568011E-01
                       6.6697112171E-01  6.6697112171E-01  3.3302887829E-01
                       6.6786431989E-01  8.3403087614E-01  8.3403087614E-01
                       8.3403087614E-01  6.6786431989E-01  8.3403087614E-01
                       8.3403087614E-01  8.3403087614E-01  6.6786431989E-01
                       6.6697112171E-01  6.6697112171E-01  6.6697112171E-01
            znucl       79.00000

================================================================================

 chkinp: Checking input parameters for consistency.

================================================================================
== DATASET  1 ==================================================================

 Exchange-correlation functional for the present dataset will be:
  LDA: new Teter (4/93) with spin-polarized option - ixc=1
 Citation for XC functional:
  S. Goedecker, M. Teter, J. Huetter, PRB 54, 1703 (1996)
 
 Real(R)+Recip(G) space primitive vectors, cartesian coordinates (Bohr,Bohr^-1):
 R(1)= 23.0100000  0.0000000  0.0000000  G(1)=  0.0434594  0.0000000  0.0000000
 R(2)=  0.0000000 23.0100000  0.0000000  G(2)=  0.0000000  0.0434594  0.0000000
 R(3)=  0.0000000  0.0000000 23.0100000  G(3)=  0.0000000  0.0000000  0.0434594
 Unit cell volume ucvol=  1.2182877E+04 bohr^3
 Angles (23,13,12)=  9.00000000E+01  9.00000000E+01  9.00000000E+01 degrees

 getcut: wavevector=  0.0000  0.0000  0.0000  ngfft=  48  48  48
         ecut(hartree)=      5.000   => boxcut(ratio)=   2.07240

--- Pseudopotential description ------------------------------------------------
- pspini: atom type   1  psp file is PseudosTM_pwteter/79au.pspnc
- pspatm: opening atomic psp file    PseudosTM_pwteter/79au.pspnc
-  Troullier-Martins psp for element  Au        Thu Oct 27 17:58:22 EDT 1994
- 79.00000  11.00000    940714                znucl, zion, pspdat
    1    1    2    0      2001   0.00000      pspcod,pspxc,lmax,lloc,mmax,r2well
    0   7.710  12.096    0   2.0761953        l,e99.0,e99.9,nproj,rcpsp
   0.00000000   0.00000000   0.00000000   0.00000000     rms, ekb1, ekb2, epsatm
    1   2.329   4.015    1   3.0973349        l,e99.0,e99.9,nproj,rcpsp
   0.00000000   0.00000000   0.00000000   0.00000000     rms, ekb1, ekb2, epsatm
    2  13.861  18.519    1   1.9261744        l,e99.0,e99.9,nproj,rcpsp
   0.00000000   0.00000000   0.00000000   0.00000000     rms, ekb1, ekb2, epsatm
    1.84225747565994    1.72828030557005    9.43000986633162   rchrg,fchrg,qchrg
 pspatm : epsatm=   90.81237674
         --- l  ekb(1:nproj) -->
             1    0.637337
             2   -5.866564
 pspatm: atomic psp has been read  and splines computed

   1.14368199E+07                                ecore*ucvol(ha*bohr**3)
--------------------------------------------------------------------------------

P newkpt: treating    648 bands with npw=      59 for ikpt=   1 by node    0
 
 setup2: Arith. and geom. avg. npw (full set) are      59.000      59.000

================================================================================

     iter   Etot(hartree)      deltaE(h)  residm     vres2
 ETOT  1  -3728.8980441616    -3.729E+03 5.849E-03 8.138E+03
 ETOT  2  -3748.4628159087    -1.956E+01 2.067E-03 1.451E+04
 ETOT  3  -3688.4821749527     5.998E+01 1.444E-03 1.816E+05
 ETOT  4  -3752.3921234191    -6.391E+01 8.923E-04 3.002E+03
 ETOT  5  -3754.2366970106    -1.845E+00 4.609E-04 2.117E+02
 ETOT  6  -3754.3288867213    -9.219E-02 1.982E-04 8.552E+01
 ETOT  7  -3754.4195816437    -9.069E-02 1.464E-04 4.041E+01
 ETOT  8  -3754.4396057643    -2.002E-02 1.403E-04 7.571E+00
 ETOT  9  -3754.4447780541    -5.172E-03 1.142E-04 3.147E+00
 ETOT 10  -3754.4459048995    -1.127E-03 1.191E-04 5.701E-01
 ETOT 11  -3754.4464522716    -5.474E-04 6.482E-05 4.342E-02
 ETOT 12  -3754.4465038999    -5.163E-05 4.069E-05 3.528E-02
 ETOT 13  -3754.4465346869    -3.079E-05 4.297E-05 3.720E-02
 ETOT 14  -3754.4465493779    -1.469E-05 3.241E-05 8.668E-03
 ETOT 15  -3754.4465579819    -8.604E-06 2.448E-05 3.356E-04
 ETOT 16  -3754.4465588773    -8.954E-07 2.248E-05 8.027E-04
 ETOT 17  -3754.4465597289    -8.516E-07 2.816E-05 8.754E-05
 ETOT 18  -3754.4465599609    -2.320E-07 2.094E-05 1.379E-05
 ETOT 19  -3754.4465600630    -1.021E-07 2.023E-05 6.267E-06
 ETOT 20  -3754.4465601168    -5.380E-08 1.383E-05 6.858E-07

 Cartesian components of stress tensor (hartree/bohr^3)
  sigma(1 1)=  3.00208878E-02  sigma(3 2)=  0.00000000E+00
  sigma(2 2)=  3.00208878E-02  sigma(3 1)=  0.00000000E+00
  sigma(3 3)=  3.00208878E-02  sigma(2 1)=  0.00000000E+00
 
================================================================================

 ----iterations are completed or convergence reached----

 Mean square residual over all n,k,spin=   7.3842E-08; max=  1.3829E-05
   0.2500  0.2500  0.2500    1  1.38292E-05 kpt; spin; max resid(k); each band:
  6.63E-16 5.16E-16 5.02E-16 8.27E-16 9.29E-16 1.10E-15 1.13E-15 1.50E-15
  1.00E-15 9.61E-16 1.21E-15 5.42E-15 6.47E-15 3.69E-15 3.18E-15 5.43E-16
  4.32E-15 2.98E-15 2.90E-15 1.16E-14 6.39E-15 1.00E-14 1.13E-14 1.02E-14
  8.88E-15 6.68E-15 1.26E-14 3.45E-15 8.90E-15 3.69E-15 3.39E-15 3.09E-15
  3.77E-15 5.55E-16 2.75E-15 2.21E-15 3.27E-15 3.37E-15 9.72E-15 8.03E-15
  7.75E-15 1.83E-15 7.23E-15 7.19E-15 7.43E-15 3.48E-15 4.29E-15 1.28E-15
  4.05E-15 4.21E-15 6.87E-15 1.23E-14 1.26E-14 1.28E-14 2.82E-15 3.87E-15
  3.20E-15 3.11E-15 3.09E-15 3.38E-15 2.70E-15 3.17E-15 2.42E-15 2.57E-15
  2.83E-15 3.96E-15 3.67E-15 3.24E-15 3.10E-15 3.19E-15 4.30E-15 2.85E-15
  3.21E-15 1.71E-15 4.93E-15 5.28E-15 6.11E-15 5.08E-15 9.21E-15 9.50E-15
  3.04E-15 3.57E-15 2.19E-15 1.91E-15 2.71E-15 2.71E-15 2.02E-15 1.84E-15
  2.36E-15 2.30E-15 3.66E-15 3.66E-15 4.13E-15 2.10E-15 2.09E-15 1.34E-15
  2.48E-15 2.48E-15 3.35E-15 2.61E-15 2.41E-15 4.46E-15 2.40E-15 3.30E-15
  3.22E-15 3.92E-15 3.90E-15 2.06E-14 1.24E-14 1.24E-14 2.70E-14 2.71E-14
  2.26E-14 2.66E-14 2.67E-14 1.26E-14 1.86E-14 1.58E-14 1.57E-14 3.04E-14
  2.72E-14 2.73E-14 1.59E-14 1.58E-14 1.49E-14 2.49E-14 2.25E-14 2.25E-14
  1.89E-14 1.56E-14 1.58E-14 1.72E-14 1.38E-14 1.37E-14 5.20E-15 2.24E-14
  9.21E-15 1.22E-14 1.17E-14 8.89E-15 8.94E-15 1.58E-14 1.53E-14 1.79E-14
  1.62E-14 1.85E-14 2.44E-14 2.46E-14 1.37E-14 1.49E-14 1.33E-14 5.43E-14
  1.03E-14 2.96E-14 9.81E-15 1.57E-14 2.12E-14 2.14E-14 2.59E-14 2.67E-14
  2.62E-14 1.93E-14 1.48E-14 1.80E-14 9.87E-15 1.02E-14 1.56E-14 5.90E-15
  9.11E-15 1.02E-14 1.84E-14 1.39E-14 1.26E-14 1.11E-14 1.07E-14 1.10E-14
  2.19E-14 3.89E-14 2.39E-14 2.43E-14 2.47E-14 2.37E-14 2.93E-14 2.41E-14
  2.40E-14 2.07E-14 1.23E-14 8.07E-15 1.63E-14 1.20E-14 1.27E-14 2.06E-14
  2.12E-14 9.92E-15 9.58E-15 9.62E-15 1.02E-14 1.03E-14 1.38E-14 1.61E-14
  1.55E-14 8.04E-15 1.36E-14 1.37E-14 2.01E-14 1.00E-14 9.80E-15 7.05E-15
  2.92E-14 1.37E-14 1.35E-14 2.17E-14 1.98E-14 1.99E-14 1.64E-14 1.56E-14
  1.52E-14 1.29E-14 1.27E-14 1.64E-14 1.19E-14 1.42E-14 1.54E-14 1.83E-14
  1.14E-14 1.15E-14 2.55E-14 1.95E-14 1.95E-14 2.18E-14 2.14E-14 1.50E-14
  1.97E-14 1.70E-14 1.71E-14 1.76E-14 1.14E-14 1.18E-14 1.80E-14 1.02E-14
  1.71E-14 1.69E-14 2.87E-14 2.30E-14 2.19E-14 1.12E-14 9.99E-15 1.70E-14
  1.63E-14 2.72E-14 2.81E-14 1.95E-14 1.98E-14 2.94E-14 1.31E-14 2.07E-14
  2.10E-14 3.71E-14 3.69E-14 2.10E-14 2.97E-14 1.49E-14 1.50E-14 1.10E-14
  3.80E-14 1.73E-14 3.19E-14 3.15E-14 1.78E-14 1.82E-14 2.50E-14 1.06E-14
  1.05E-14 1.69E-14 1.75E-14 6.95E-15 1.08E-14 2.40E-14 2.40E-14 6.39E-15
  1.67E-14 1.66E-14 1.09E-14 1.16E-14 9.68E-15 2.22E-14 2.01E-14 1.86E-14
  2.27E-14 2.29E-14 1.24E-14 1.47E-14 2.35E-14 2.64E-14 2.60E-14 2.68E-14
  7.66E-15 1.03E-14 1.39E-14 1.31E-14 1.09E-14 1.20E-14 1.01E-14 5.86E-15
  1.93E-14 1.98E-14 1.23E-14 1.17E-14 1.76E-14 1.76E-14 1.58E-14 1.13E-14
  1.38E-14 1.61E-14 1.59E-14 1.69E-14 1.57E-14 2.28E-14 1.48E-14 1.67E-14
  1.12E-14 1.07E-14 2.72E-14 1.30E-14 1.04E-14 1.23E-14 1.24E-14 1.40E-14
  1.18E-14 1.18E-14 1.48E-14 1.48E-14 9.53E-15 1.40E-14 1.43E-14 9.41E-15
  1.16E-14 1.55E-14 1.01E-14 9.96E-15 1.39E-14 1.69E-14 1.68E-14 1.07E-14
  2.53E-14 2.56E-14 1.02E-14 1.06E-14 3.15E-14 3.20E-14 3.85E-14 1.07E-14
  2.05E-14 1.52E-14 1.52E-14 1.05E-14 1.26E-14 1.27E-14 1.19E-14 1.18E-14
  7.26E-15 1.05E-14 1.43E-14 1.42E-14 3.06E-14 3.08E-14 1.71E-14 1.70E-14
  1.60E-14 1.83E-14 1.80E-14 2.65E-14 1.29E-14 1.29E-14 2.96E-14 3.33E-14
  2.60E-14 2.66E-14 1.01E-14 1.01E-14 9.69E-15 1.76E-14 1.76E-14 1.00E-14
  1.76E-14 1.78E-14 1.37E-14 1.86E-14 1.88E-14 9.75E-15 1.43E-14 2.31E-14
  2.29E-14 1.59E-14 2.28E-14 2.25E-14 1.58E-14 2.15E-14 2.12E-14 1.21E-14
  1.22E-14 1.34E-14 2.45E-14 1.91E-14 1.92E-14 1.10E-14 1.21E-14 1.05E-14
  8.10E-15 1.49E-14 1.49E-14 1.16E-14 1.15E-14 1.08E-14 1.41E-14 1.47E-14
  1.55E-14 1.58E-14 9.64E-15 1.42E-14 1.71E-14 1.06E-14 1.68E-14 1.48E-14
  1.67E-14 7.13E-15 8.41E-15 3.31E-14 2.89E-14 1.98E-14 1.20E-14 2.02E-14
  1.79E-14 2.32E-14 2.29E-14 1.31E-14 1.20E-14 1.16E-14 1.14E-14 1.15E-14
  1.33E-14 1.73E-14 1.76E-14 1.62E-14 1.96E-14 2.67E-14 2.64E-14 1.40E-14
  1.42E-14 2.32E-14 2.45E-14 2.34E-14 3.44E-14 3.48E-14 2.62E-14 1.69E-14
  1.89E-14 1.86E-14 4.17E-14 1.77E-14 1.74E-14 1.88E-14 2.63E-14 2.41E-14
  1.58E-14 1.95E-14 1.94E-14 1.76E-14 1.79E-14 1.87E-14 1.88E-14 2.17E-14
  2.24E-14 3.26E-14 2.92E-14 2.87E-14 1.67E-14 1.87E-14 2.39E-14 2.43E-14
  2.25E-14 1.95E-14 1.98E-14 2.44E-14 3.34E-14 2.39E-14 2.03E-14 2.54E-14
  2.63E-14 2.62E-14 2.29E-14 2.13E-14 2.22E-14 1.44E-14 1.27E-14 2.32E-14
  2.14E-14 2.98E-14 2.97E-14 2.00E-14 2.79E-14 2.81E-14 2.14E-14 2.20E-14
  1.82E-14 2.80E-14 2.37E-14 2.36E-14 2.41E-14 6.13E-14 6.10E-14 1.69E-14
  3.28E-14 2.65E-14 1.67E-14 1.61E-14 2.10E-14 3.31E-14 3.29E-14 4.59E-14
  2.03E-14 2.83E-14 2.88E-14 2.75E-14 2.31E-14 2.36E-14 3.95E-14 2.22E-14
  2.27E-14 4.45E-14 2.71E-14 2.87E-14 2.39E-14 2.46E-14 2.21E-14 2.32E-14
  2.43E-14 4.49E-14 3.51E-14 3.61E-14 3.23E-14 3.47E-14 5.68E-14 2.71E-14
  3.67E-14 3.67E-14 5.82E-14 5.47E-14 2.23E-13 4.38E-13 1.10E-13 4.39E-13
  1.39E-13 2.59E-13 7.06E-14 3.37E-12 4.54E-13 2.40E-12 1.51E-13 1.68E-12
  6.89E-13 1.29E-12 1.32E-12 1.33E-13 1.58E-12 5.93E-13 2.25E-13 2.48E-13
  1.73E-12 7.20E-13 2.53E-12 1.83E-12 3.73E-12 8.19E-12 3.78E-13 1.50E-12
  2.16E-13 1.38E-12 4.31E-12 4.97E-12 5.02E-13 2.69E-12 8.96E-13 2.85E-12
  6.74E-12 1.89E-12 6.15E-13 3.84E-12 5.43E-12 1.41E-11 2.38E-11 7.49E-12
  8.82E-11 1.85E-12 2.58E-11 3.21E-12 8.13E-12 7.55E-12 1.96E-11 2.86E-12
  7.89E-12 3.11E-11 4.46E-10 3.39E-11 1.03E-11 7.06E-11 1.36E-10 2.56E-12
  4.39E-11 3.30E-11 8.94E-11 1.93E-10 5.41E-11 9.61E-11 5.73E-12 8.90E-11
  4.97E-11 3.58E-11 1.96E-10 1.42E-10 4.77E-10 5.50E-09 8.74E-10 4.86E-09
  4.27E-10 3.38E-09 1.67E-09 2.86E-09 1.53E-08 1.18E-07 4.93E-09 1.79E-08
  1.61E-07 5.04E-08 3.48E-07 1.17E-08 3.97E-06 1.13E-07 1.79E-07 2.47E-07
  2.39E-08 1.14E-06 4.44E-06 3.69E-07 1.14E-05 1.38E-05 2.82E-06 8.55E-06
 reduced coordinates (array xred) for  107 atoms
       0.000000000000      0.163260959810      0.163260959810
       0.163260959810      0.000000000000      0.163260959810
       0.163260959810      0.163260959810      0.000000000000
       0.000000000000      0.166415066890      0.500000000000
       0.166415066890      0.000000000000      0.500000000000
       0.165969123860      0.165969123860      0.332135680110
       0.000000000000      0.000000000000      0.332513080460
       0.000000000000      0.163260959810      0.836739040190
       0.163260959810      0.000000000000      0.836739040190
       0.165969123860      0.165969123860      0.667864319890
       0.000000000000      0.000000000000      0.667486919540
       0.000000000000      0.500000000000      0.166415066890
       0.165969123860      0.332135680110      0.165969123860
       0.166415066890      0.500000000000      0.000000000000
       0.000000000000      0.332513080460      0.000000000000
       0.000000000000      0.500000000000      0.500000000000
       0.166496231940      0.332916578170      0.500000000000
       0.166496231940      0.500000000000      0.332916578170
       0.000000000000      0.333140408550      0.333140408550
       0.000000000000      0.500000000000      0.833584933110
       0.165969123860      0.332135680110      0.834030876140
       0.166496231940      0.500000000000      0.667083421830
       0.000000000000      0.333140408550      0.666859591450
       0.000000000000      0.836739040190      0.163260959810
       0.165969123860      0.667864319890      0.165969123860
       0.163260959810      0.836739040190      0.000000000000
       0.000000000000      0.667486919540      0.000000000000
       0.000000000000      0.833584933110      0.500000000000
       0.166496231940      0.667083421830      0.500000000000
       0.165969123860      0.834030876140      0.332135680110
       0.000000000000      0.666859591450      0.333140408550
       0.000000000000      0.836739040190      0.836739040190
       0.165969123860      0.667864319890      0.834030876140
       0.165969123860      0.834030876140      0.667864319890
       0.000000000000      0.666859591450      0.666859591450
       0.332135680110      0.165969123860      0.165969123860
       0.500000000000      0.000000000000      0.166415066890
       0.500000000000      0.166415066890      0.000000000000
       0.332513080460      0.000000000000      0.000000000000
       0.332916578170      0.166496231940      0.500000000000
       0.500000000000      0.000000000000      0.500000000000
       0.500000000000      0.166496231940      0.332916578170
       0.333140408550      0.000000000000      0.333140408550
       0.332135680110      0.165969123860      0.834030876140
       0.500000000000      0.000000000000      0.833584933110
       0.500000000000      0.166496231940      0.667083421830
       0.333140408550      0.000000000000      0.666859591450
       0.332916578170      0.500000000000      0.166496231940
       0.500000000000      0.332916578170      0.166496231940
       0.500000000000      0.500000000000      0.000000000000
       0.333140408550      0.333140408550      0.000000000000
       0.333161164200      0.500000000000      0.500000000000
       0.500000000000      0.333161164200      0.500000000000
       0.500000000000      0.500000000000      0.333161164200
       0.333028878290      0.333028878290      0.333028878290
       0.332916578170      0.500000000000      0.833503768060
       0.500000000000      0.332916578170      0.833503768060
       0.500000000000      0.500000000000      0.666838835800
       0.333028878290      0.333028878290      0.666971121710
       0.332135680110      0.834030876140      0.165969123860
       0.500000000000      0.667083421830      0.166496231940
       0.500000000000      0.833584933110      0.000000000000
       0.333140408550      0.666859591450      0.000000000000
       0.332916578170      0.833503768060      0.500000000000
       0.500000000000      0.666838835800      0.500000000000
       0.500000000000      0.833503768060      0.332916578170
       0.333028878290      0.666971121710      0.333028878290
       0.332135680110      0.834030876140      0.834030876140
       0.500000000000      0.667083421830      0.833503768060
       0.500000000000      0.833503768060      0.667083421830
       0.333028878290      0.666971121710      0.666971121710
       0.667864319890      0.165969123860      0.165969123860
       0.836739040190      0.000000000000      0.163260959810
       0.836739040190      0.163260959810      0.000000000000
       0.667486919540      0.000000000000      0.000000000000
       0.667083421830      0.166496231940      0.500000000000
       0.833584933110      0.000000000000      0.500000000000
       0.834030876140      0.165969123860      0.332135680110
       0.666859591450      0.000000000000      0.333140408550
       0.667864319890      0.165969123860      0.834030876140
       0.836739040190      0.000000000000      0.836739040190
       0.834030876140      0.165969123860      0.667864319890
       0.666859591450      0.000000000000      0.666859591450
       0.667083421830      0.500000000000      0.166496231940
       0.834030876140      0.332135680110      0.165969123860
       0.833584933110      0.500000000000      0.000000000000
       0.666859591450      0.333140408550      0.000000000000
       0.666838835800      0.500000000000      0.500000000000
       0.833503768060      0.332916578170      0.500000000000
       0.833503768060      0.500000000000      0.332916578170
       0.666971121710      0.333028878290      0.333028878290
       0.667083421830      0.500000000000      0.833503768060
       0.834030876140      0.332135680110      0.834030876140
       0.833503768060      0.500000000000      0.667083421830
       0.666971121710      0.333028878290      0.666971121710
       0.667864319890      0.834030876140      0.165969123860
       0.834030876140      0.667864319890      0.165969123860
       0.836739040190      0.836739040190      0.000000000000
       0.666859591450      0.666859591450      0.000000000000
       0.667083421830      0.833503768060      0.500000000000
       0.833503768060      0.667083421830      0.500000000000
       0.834030876140      0.834030876140      0.332135680110
       0.666971121710      0.666971121710      0.333028878290
       0.667864319890      0.834030876140      0.834030876140
       0.834030876140      0.667864319890      0.834030876140
       0.834030876140      0.834030876140      0.667864319890
       0.666971121710      0.666971121710      0.666971121710
 rms dE/dt=  6.6322E-01; max dE/dt=  1.9986E+00; dE/dt below (all hartree)
    1       0.000000000000      1.998571984115      1.998571984115
    2       1.998571984115      0.000000000000      1.998571984115
    3       1.998571984115      1.998571984115      0.000000000000
    4       0.000000000000      0.268771921004      0.000000000000
    5       0.268771921004      0.000000000000      0.000000000000
    6       0.540335487356      0.540335487356      0.873679570282
    7       0.000000000000      0.000000000000      0.848603631258
    8       0.000000000000      1.998571984115     -1.998571984115
    9       1.998571984115      0.000000000000     -1.998571984115
   10       0.540335487356      0.540335487356     -0.873679570282
   11       0.000000000000      0.000000000000     -0.848603631258
   12       0.000000000000      0.000000000000      0.268771921004
   13       0.540335487356      0.873679570282      0.540335487356
   14       0.268771921004      0.000000000000      0.000000000000
   15       0.000000000000      0.848603631258      0.000000000000
   16       0.000000000000      0.000000000000      0.000000000000
   17       0.234299548427      0.256012714876      0.000000000000
   18       0.234299548427      0.000000000000      0.256012714876
   19       0.000000000000     -0.299095224763     -0.299095224763
   20       0.000000000000      0.000000000000     -0.268771921004
   21       0.540335487356      0.873679570282     -0.540335487356
   22       0.234299548427      0.000000000000     -0.256012714876
   23       0.000000000000     -0.299095224763      0.299095224763
   24       0.000000000000     -1.998571984115      1.998571984115
   25       0.540335487356     -0.873679570282      0.540335487356
   26       1.998571984115     -1.998571984115      0.000000000000
   27       0.000000000000     -0.848603631258      0.000000000000
   28       0.000000000000     -0.268771921004      0.000000000000
   29       0.234299548427     -0.256012714876      0.000000000000
   30       0.540335487356     -0.540335487356      0.873679570282
   31       0.000000000000      0.299095224763     -0.299095224763
   32       0.000000000000     -1.998571984115     -1.998571984115
   33       0.540335487356     -0.873679570282     -0.540335487356
   34       0.540335487356     -0.540335487356     -0.873679570282
   35       0.000000000000      0.299095224763      0.299095224763
   36       0.873679570282      0.540335487356      0.540335487356
   37       0.000000000000      0.000000000000      0.268771921004
   38       0.000000000000      0.268771921004      0.000000000000
   39       0.848603631258      0.000000000000      0.000000000000
   40       0.256012714876      0.234299548427      0.000000000000
   41       0.000000000000      0.000000000000      0.000000000000
   42       0.000000000000      0.234299548427      0.256012714876
   43      -0.299095224763      0.000000000000     -0.299095224763
   44       0.873679570282      0.540335487356     -0.540335487356
   45       0.000000000000      0.000000000000     -0.268771921004
   46       0.000000000000      0.234299548427     -0.256012714876
   47      -0.299095224763      0.000000000000      0.299095224763
   48       0.256012714876      0.000000000000      0.234299548427
   49       0.000000000000      0.256012714876      0.234299548427
   50       0.000000000000      0.000000000000      0.000000000000
   51      -0.299095224763     -0.299095224763      0.000000000000
   52       0.208616225844      0.000000000000      0.000000000000
   53       0.000000000000      0.208616225844      0.000000000000
   54       0.000000000000      0.000000000000      0.208616225844
   55       0.323496898703      0.323496898703      0.323496898703
   56       0.256012714876      0.000000000000     -0.234299548427
   57       0.000000000000      0.256012714876     -0.234299548427
   58       0.000000000000      0.000000000000     -0.208616225844
   59       0.323496898703      0.323496898703     -0.323496898703
   60       0.873679570282     -0.540335487356      0.540335487356
   61       0.000000000000     -0.256012714876      0.234299548427
   62       0.000000000000     -0.268771921004      0.000000000000
   63      -0.299095224763      0.299095224763      0.000000000000
   64       0.256012714876     -0.234299548427      0.000000000000
   65       0.000000000000     -0.208616225844      0.000000000000
   66       0.000000000000     -0.234299548427      0.256012714876
   67       0.323496898703     -0.323496898703      0.323496898703
   68       0.873679570282     -0.540335487356     -0.540335487356
   69       0.000000000000     -0.256012714876     -0.234299548427
   70       0.000000000000     -0.234299548427     -0.256012714876
   71       0.323496898703     -0.323496898703     -0.323496898703
   72      -0.873679570282      0.540335487356      0.540335487356
   73      -1.998571984115      0.000000000000      1.998571984115
   74      -1.998571984115      1.998571984115      0.000000000000
   75      -0.848603631258      0.000000000000      0.000000000000
   76      -0.256012714876      0.234299548427      0.000000000000
   77      -0.268771921004      0.000000000000      0.000000000000
   78      -0.540335487356      0.540335487356      0.873679570282
   79       0.299095224763      0.000000000000     -0.299095224763
   80      -0.873679570282      0.540335487356     -0.540335487356
   81      -1.998571984115      0.000000000000     -1.998571984115
   82      -0.540335487356      0.540335487356     -0.873679570282
   83       0.299095224763      0.000000000000      0.299095224763
   84      -0.256012714876      0.000000000000      0.234299548427
   85      -0.540335487356      0.873679570282      0.540335487356
   86      -0.268771921004      0.000000000000      0.000000000000
   87       0.299095224763     -0.299095224763      0.000000000000
   88      -0.208616225844      0.000000000000      0.000000000000
   89      -0.234299548427      0.256012714876      0.000000000000
   90      -0.234299548427      0.000000000000      0.256012714876
   91      -0.323496898703      0.323496898703      0.323496898703
   92      -0.256012714876      0.000000000000     -0.234299548427
   93      -0.540335487356      0.873679570282     -0.540335487356
   94      -0.234299548427      0.000000000000     -0.256012714876
   95      -0.323496898703      0.323496898703     -0.323496898703
   96      -0.873679570282     -0.540335487356      0.540335487356
   97      -0.540335487356     -0.873679570282      0.540335487356
   98      -1.998571984115     -1.998571984115      0.000000000000
   99       0.299095224763      0.299095224763      0.000000000000
  100      -0.256012714876     -0.234299548427      0.000000000000
  101      -0.234299548427     -0.256012714876      0.000000000000
  102      -0.540335487356     -0.540335487356      0.873679570282
  103      -0.323496898703     -0.323496898703      0.323496898703
  104      -0.873679570282     -0.540335487356     -0.540335487356
  105      -0.540335487356     -0.873679570282     -0.540335487356
  106      -0.540335487356     -0.540335487356     -0.873679570282
  107      -0.323496898703     -0.323496898703     -0.323496898703
 
 cartesian coordinates (angstrom) at end:
    1      0.00000000000000     1.98792545642138     1.98792545642138
    2      1.98792545642138     0.00000000000000     1.98792545642138
    3      1.98792545642138     1.98792545642138     0.00000000000000
    4      0.00000000000000     2.02633102358151     6.08818378482795
    5      2.02633102358151     0.00000000000000     6.08818378482795
    6      2.02090105733311     2.02090105733311     4.04420612401701
    7      0.00000000000000     0.00000000000000     4.04880148939953
    8      0.00000000000000     1.98792545642138    10.18844211323452
    9      1.98792545642138     0.00000000000000    10.18844211323452
   10      2.02090105733311     2.02090105733311     8.13216144563889
   11      0.00000000000000     0.00000000000000     8.12756608025637
   12      0.00000000000000     6.08818378482795     2.02633102358151
   13      2.02090105733311     4.04420612401701     2.02090105733311
   14      2.02633102358151     6.08818378482795     0.00000000000000
   15      0.00000000000000     4.04880148939953     0.00000000000000
   16      0.00000000000000     6.08818378482795     6.08818378482795
   17      2.02731931906412     4.05371462583000     6.08818378482795
   18      2.02731931906412     6.08818378482795     4.05371462583000
   19      0.00000000000000     4.05644006681014     4.05644006681014
   20      0.00000000000000     6.08818378482795    10.15003654607439
   21      2.02090105733311     4.04420612401701    10.15546651232279
   22      2.02731931906412     6.08818378482795     8.12265294382590
   23      0.00000000000000     4.05644006681014     8.11992750284576
   24      0.00000000000000    10.18844211323452     1.98792545642138
   25      2.02090105733311     8.13216144563889     2.02090105733311
   26      1.98792545642138    10.18844211323452     0.00000000000000
   27      0.00000000000000     8.12756608025637     0.00000000000000
   28      0.00000000000000    10.15003654607439     6.08818378482795
   29      2.02731931906412     8.12265294382590     6.08818378482795
   30      2.02090105733311    10.15546651232279     4.04420612401701
   31      0.00000000000000     8.11992750284576     4.05644006681014
   32      0.00000000000000    10.18844211323452    10.18844211323452
   33      2.02090105733311     8.13216144563889    10.15546651232279
   34      2.02090105733311    10.15546651232279     8.13216144563889
   35      0.00000000000000     8.11992750284576     8.11992750284576
   36      4.04420612401701     2.02090105733311     2.02090105733311
   37      6.08818378482795     0.00000000000000     2.02633102358151
   38      6.08818378482795     2.02633102358151     0.00000000000000
   39      4.04880148939953     0.00000000000000     0.00000000000000
   40      4.05371462583000     2.02731931906412     6.08818378482795
   41      6.08818378482795     0.00000000000000     6.08818378482795
   42      6.08818378482795     2.02731931906412     4.05371462583000
   43      4.05644006681014     0.00000000000000     4.05644006681014
   44      4.04420612401701     2.02090105733311    10.15546651232279
   45      6.08818378482795     0.00000000000000    10.15003654607439
   46      6.08818378482795     2.02731931906412     8.12265294382590
   47      4.05644006681014     0.00000000000000     8.11992750284576
   48      4.05371462583000     6.08818378482795     2.02731931906412
   49      6.08818378482795     4.05371462583000     2.02731931906412
   50      6.08818378482795     6.08818378482795     0.00000000000000
   51      4.05644006681014     4.05644006681014     0.00000000000000
   52      4.05669279523369     6.08818378482795     6.08818378482795
   53      6.08818378482795     4.05669279523369     6.08818378482795
   54      6.08818378482795     6.08818378482795     4.05669279523369
   55      4.05508203336924     4.05508203336924     4.05508203336924
   56      4.05371462583000     6.08818378482795    10.14904825059178
   57      6.08818378482795     4.05371462583000    10.14904825059178
   58      6.08818378482795     6.08818378482795     8.11967477442222
   59      4.05508203336924     4.05508203336924     8.12128553628666
   60      4.04420612401701    10.15546651232279     2.02090105733311
   61      6.08818378482795     8.12265294382590     2.02731931906412
   62      6.08818378482795    10.15003654607439     0.00000000000000
   63      4.05644006681014     8.11992750284576     0.00000000000000
   64      4.05371462583000    10.14904825059178     6.08818378482795
   65      6.08818378482795     8.11967477442222     6.08818378482795
   66      6.08818378482795    10.14904825059178     4.05371462583000
   67      4.05508203336924     8.12128553628666     4.05508203336924
   68      4.04420612401701    10.15546651232279    10.15546651232279
   69      6.08818378482795     8.12265294382590    10.14904825059178
   70      6.08818378482795    10.14904825059178     8.12265294382590
   71      4.05508203336924     8.12128553628666     8.12128553628666
   72      8.13216144563889     2.02090105733311     2.02090105733311
   73     10.18844211323452     0.00000000000000     1.98792545642138
   74     10.18844211323452     1.98792545642138     0.00000000000000
   75      8.12756608025637     0.00000000000000     0.00000000000000
   76      8.12265294382590     2.02731931906412     6.08818378482795
   77     10.15003654607439     0.00000000000000     6.08818378482795
   78     10.15546651232279     2.02090105733311     4.04420612401701
   79      8.11992750284576     0.00000000000000     4.05644006681014
   80      8.13216144563889     2.02090105733311    10.15546651232279
   81     10.18844211323452     0.00000000000000    10.18844211323452
   82     10.15546651232279     2.02090105733311     8.13216144563889
   83      8.11992750284576     0.00000000000000     8.11992750284576
   84      8.12265294382590     6.08818378482795     2.02731931906412
   85     10.15546651232279     4.04420612401701     2.02090105733311
   86     10.15003654607439     6.08818378482795     0.00000000000000
   87      8.11992750284576     4.05644006681014     0.00000000000000
   88      8.11967477442222     6.08818378482795     6.08818378482795
   89     10.14904825059178     4.05371462583000     6.08818378482795
   90     10.14904825059178     6.08818378482795     4.05371462583000
   91      8.12128553628666     4.05508203336924     4.05508203336924
   92      8.12265294382590     6.08818378482795    10.14904825059178
   93     10.15546651232279     4.04420612401701    10.15546651232279
   94     10.14904825059178     6.08818378482795     8.12265294382590
   95      8.12128553628666     4.05508203336924     8.12128553628666
   96      8.13216144563889    10.15546651232279     2.02090105733311
   97     10.15546651232279     8.13216144563889     2.02090105733311
   98     10.18844211323452    10.18844211323452     0.00000000000000
   99      8.11992750284576     8.11992750284576     0.00000000000000
  100      8.12265294382590    10.14904825059178     6.08818378482795
  101     10.14904825059178     8.12265294382590     6.08818378482795
  102     10.15546651232279    10.15546651232279     4.04420612401701
  103      8.12128553628666     8.12128553628666     4.05508203336924
  104      8.13216144563889    10.15546651232279    10.15546651232279
  105     10.15546651232279     8.13216144563889    10.15546651232279
  106     10.15546651232279    10.15546651232279     8.13216144563889
  107      8.12128553628666     8.12128553628666     8.12128553628666

 cartesian forces (hartree/bohr) at end:
    1      0.00000000000000    -0.08685667032225    -0.08685667032225
    2     -0.08685667032225     0.00000000000000    -0.08685667032225
    3     -0.08685667032225    -0.08685667032225     0.00000000000000
    4      0.00000000000000    -0.01168065714925     0.00000000000000
    5     -0.01168065714925     0.00000000000000     0.00000000000000
    6     -0.02348263743400    -0.02348263743400    -0.03796955976890
    7      0.00000000000000     0.00000000000000    -0.03687977536977
    8      0.00000000000000    -0.08685667032225     0.08685667032225
    9     -0.08685667032225     0.00000000000000     0.08685667032225
   10     -0.02348263743400    -0.02348263743400     0.03796955976890
   11      0.00000000000000     0.00000000000000     0.03687977536977
   12      0.00000000000000     0.00000000000000    -0.01168065714925
   13     -0.02348263743400    -0.03796955976890    -0.02348263743400
   14     -0.01168065714925     0.00000000000000     0.00000000000000
   15      0.00000000000000    -0.03687977536977     0.00000000000000
   16      0.00000000000000     0.00000000000000     0.00000000000000
   17     -0.01018250971000    -0.01112615014674     0.00000000000000
   18     -0.01018250971000     0.00000000000000    -0.01112615014674
   19      0.00000000000000     0.01299848869026     0.01299848869026
   20      0.00000000000000     0.00000000000000     0.01168065714925
   21     -0.02348263743400    -0.03796955976890     0.02348263743400
   22     -0.01018250971000     0.00000000000000     0.01112615014674
   23      0.00000000000000     0.01299848869026    -0.01299848869026
   24      0.00000000000000     0.08685667032225    -0.08685667032225
   25     -0.02348263743400     0.03796955976890    -0.02348263743400
   26     -0.08685667032225     0.08685667032225     0.00000000000000
   27      0.00000000000000     0.03687977536977     0.00000000000000
   28      0.00000000000000     0.01168065714925     0.00000000000000
   29     -0.01018250971000     0.01112615014674     0.00000000000000
   30     -0.02348263743400     0.02348263743400    -0.03796955976890
   31      0.00000000000000    -0.01299848869026     0.01299848869026
   32      0.00000000000000     0.08685667032225     0.08685667032225
   33     -0.02348263743400     0.03796955976890     0.02348263743400
   34     -0.02348263743400     0.02348263743400     0.03796955976890
   35      0.00000000000000    -0.01299848869026    -0.01299848869026
   36     -0.03796955976890    -0.02348263743400    -0.02348263743400
   37      0.00000000000000     0.00000000000000    -0.01168065714925
   38      0.00000000000000    -0.01168065714925     0.00000000000000
   39     -0.03687977536977     0.00000000000000     0.00000000000000
   40     -0.01112615014674    -0.01018250971000     0.00000000000000
   41      0.00000000000000     0.00000000000000     0.00000000000000
   42      0.00000000000000    -0.01018250971000    -0.01112615014674
   43      0.01299848869026     0.00000000000000     0.01299848869026
   44     -0.03796955976890    -0.02348263743400     0.02348263743400
   45      0.00000000000000     0.00000000000000     0.01168065714925
   46      0.00000000000000    -0.01018250971000     0.01112615014674
   47      0.01299848869026     0.00000000000000    -0.01299848869026
   48     -0.01112615014674     0.00000000000000    -0.01018250971000
   49      0.00000000000000    -0.01112615014674    -0.01018250971000
   50      0.00000000000000     0.00000000000000     0.00000000000000
   51      0.01299848869026     0.01299848869026     0.00000000000000
   52     -0.00906632880679     0.00000000000000     0.00000000000000
   53      0.00000000000000    -0.00906632880679     0.00000000000000
   54      0.00000000000000     0.00000000000000    -0.00906632880679
   55     -0.01405896995668    -0.01405896995668    -0.01405896995668
   56     -0.01112615014674     0.00000000000000     0.01018250971000
   57      0.00000000000000    -0.01112615014674     0.01018250971000
   58      0.00000000000000     0.00000000000000     0.00906632880679
   59     -0.01405896995668    -0.01405896995668     0.01405896995668
   60     -0.03796955976890     0.02348263743400    -0.02348263743400
   61      0.00000000000000     0.01112615014674    -0.01018250971000
   62      0.00000000000000     0.01168065714925     0.00000000000000
   63      0.01299848869026    -0.01299848869026     0.00000000000000
   64     -0.01112615014674     0.01018250971000     0.00000000000000
   65      0.00000000000000     0.00906632880679     0.00000000000000
   66      0.00000000000000     0.01018250971000    -0.01112615014674
   67     -0.01405896995668     0.01405896995668    -0.01405896995668
   68     -0.03796955976890     0.02348263743400     0.02348263743400
   69      0.00000000000000     0.01112615014674     0.01018250971000
   70      0.00000000000000     0.01018250971000     0.01112615014674
   71     -0.01405896995668     0.01405896995668     0.01405896995668
   72      0.03796955976890    -0.02348263743400    -0.02348263743400
   73      0.08685667032225     0.00000000000000    -0.08685667032225
   74      0.08685667032225    -0.08685667032225     0.00000000000000
   75      0.03687977536977     0.00000000000000     0.00000000000000
   76      0.01112615014674    -0.01018250971000     0.00000000000000
   77      0.01168065714925     0.00000000000000     0.00000000000000
   78      0.02348263743400    -0.02348263743400    -0.03796955976890
   79     -0.01299848869026     0.00000000000000     0.01299848869026
   80      0.03796955976890    -0.02348263743400     0.02348263743400
   81      0.08685667032225     0.00000000000000     0.08685667032225
   82      0.02348263743400    -0.02348263743400     0.03796955976890
   83     -0.01299848869026     0.00000000000000    -0.01299848869026
   84      0.01112615014674     0.00000000000000    -0.01018250971000
   85      0.02348263743400    -0.03796955976890    -0.02348263743400
   86      0.01168065714925     0.00000000000000     0.00000000000000
   87     -0.01299848869026     0.01299848869026     0.00000000000000
   88      0.00906632880679     0.00000000000000     0.00000000000000
   89      0.01018250971000    -0.01112615014674     0.00000000000000
   90      0.01018250971000     0.00000000000000    -0.01112615014674
   91      0.01405896995668    -0.01405896995668    -0.01405896995668
   92      0.01112615014674     0.00000000000000     0.01018250971000
   93      0.02348263743400    -0.03796955976890     0.02348263743400
   94      0.01018250971000     0.00000000000000     0.01112615014674
   95      0.01405896995668    -0.01405896995668     0.01405896995668
   96      0.03796955976890     0.02348263743400    -0.02348263743400
   97      0.02348263743400     0.03796955976890    -0.02348263743400
   98      0.08685667032225     0.08685667032225     0.00000000000000
   99     -0.01299848869026    -0.01299848869026     0.00000000000000
  100      0.01112615014674     0.01018250971000     0.00000000000000
  101      0.01018250971000     0.01112615014674     0.00000000000000
  102      0.02348263743400     0.02348263743400    -0.03796955976890
  103      0.01405896995668     0.01405896995668    -0.01405896995668
  104      0.03796955976890     0.02348263743400     0.02348263743400
  105      0.02348263743400     0.03796955976890     0.02348263743400
  106      0.02348263743400     0.02348263743400     0.03796955976890
  107      0.01405896995668     0.01405896995668     0.01405896995668
 frms,max,avg= 2.8823050E-02 8.6856670E-02   0.000E+00  0.000E+00  0.000E+00 h/b

 cartesian forces (eV/Angstrom) at end:
    1      0.00000000000000    -4.46634918997720    -4.46634918997719
    2     -4.46634918997720     0.00000000000000    -4.46634918997720
    3     -4.46634918997720    -4.46634918997720     0.00000000000000
    4      0.00000000000000    -0.60064349005532     0.00000000000000
    5     -0.60064349005532     0.00000000000000     0.00000000000000
    6     -1.20752566605137    -1.20752566605137    -1.95247310181713
    7      0.00000000000000     0.00000000000000    -1.89643413957928
    8      0.00000000000000    -4.46634918997720     4.46634918997720
    9     -4.46634918997720     0.00000000000000     4.46634918997720
   10     -1.20752566605137    -1.20752566605137     1.95247310181713
   11      0.00000000000000     0.00000000000000     1.89643413957928
   12      0.00000000000000     0.00000000000000    -0.60064349005532
   13     -1.20752566605137    -1.95247310181713    -1.20752566605137
   14     -0.60064349005532     0.00000000000000     0.00000000000000
   15      0.00000000000000    -1.89643413957928     0.00000000000000
[...]
                       6.6685959145E-01  3.3314040855E-01  0.0000000000E+00
                       6.6683883580E-01  5.0000000000E-01  5.0000000000E-01
                       8.3350376806E-01  3.3291657817E-01  5.0000000000E-01
                       8.3350376806E-01  5.0000000000E-01  3.3291657817E-01
                       6.6697112171E-01  3.3302887829E-01  3.3302887829E-01
                       6.6708342183E-01  5.0000000000E-01  8.3350376806E-01
                       8.3403087614E-01  3.3213568011E-01  8.3403087614E-01
                       8.3350376806E-01  5.0000000000E-01  6.6708342183E-01
                       6.6697112171E-01  3.3302887829E-01  6.6697112171E-01
                       6.6786431989E-01  8.3403087614E-01  1.6596912386E-01
                       8.3403087614E-01  6.6786431989E-01  1.6596912386E-01
                       8.3673904019E-01  8.3673904019E-01  0.0000000000E+00
                       6.6685959145E-01  6.6685959145E-01  0.0000000000E+00
                       6.6708342183E-01  8.3350376806E-01  5.0000000000E-01
                       8.3350376806E-01  6.6708342183E-01  5.0000000000E-01
                       8.3403087614E-01  8.3403087614E-01  3.3213568011E-01
                       6.6697112171E-01  6.6697112171E-01  3.3302887829E-01
                       6.6786431989E-01  8.3403087614E-01  8.3403087614E-01
                       8.3403087614E-01  6.6786431989E-01  8.3403087614E-01
                       8.3403087614E-01  8.3403087614E-01  6.6786431989E-01
                       6.6697112171E-01  6.6697112171E-01  6.6697112171E-01
            znucl       79.00000

================================================================================

- Total cpu        time (s,m,h):      13088.4      218.14      3.636
- Total wall clock time (s,m,h):      13088.4      218.14      3.636
-
- For major independent code sections, cpu and wall times (sec),
-  as well as % of the time and number of calls for node 0-
- routine                        cpu     %       wall     %      number of calls 
- nonlop(apply)                 26.438   0.2     26.452   0.2           2640
- fourwf(pot)                   16.326   0.1     16.316   0.1           2640
- vtowfk(ssdiag)                10.541   0.1     10.537   0.1             -1
- vtowfk(contrib)                7.180   0.1      7.178   0.1             20
- rwwf                           2.041   0.0      2.041   0.0              1
- vtorho(4)mkrhpaw               1.862   0.0      1.861   0.0             40
- mkrho/=                        1.743   0.0      1.745   0.0             40
- fourdp                         0.848   0.0      0.845   0.0            104
- nonlop(forstr)                 0.586   0.0      0.585   0.0             24
- ewald                          0.262   0.0      0.263   0.0              1
- invars2                        0.259   0.0      0.259   0.0              1
- abinit(2)                      0.250   0.0      0.250   0.0              1
- stress                         0.240   0.0      0.240   0.0              1
- getghc-other                   0.213   0.0      0.216   0.0             -1
- pspini                         0.211   0.0      0.210   0.0              1
- ewald2                         0.203   0.0      0.203   0.0              1
- symrhg(no FFT)                 0.180   0.0      0.183   0.0             20
- forces                         0.095   0.0      0.095   0.0              1
- vtorho:synchro                 0.076   0.0      0.076   0.0             20
- xc:pot/=fourdp                 0.063   0.0      0.064   0.0             21
- mkcore                         0.057   0.0      0.055   0.0              3
- vtorho  (1)                    0.048   0.0      0.048   0.0             20
- status                         0.046   0.0      0.045   0.0            582
- setsym                         0.034   0.0      0.034   0.0              1
- vtorho-kpt loop                0.028   0.0      0.030   0.0             20
- scfcv-scprqt                   0.012   0.0      0.013   0.0             20
- vtowfk  (1)                    0.005   0.0      0.007   0.0             20
- inwffil                        0.004   0.0      0.004   0.0              1
- vtorho:MPI                     0.000   0.0      0.001   0.0             20
- kpgsph                         0.000   0.0      0.000   0.0              2
- vtowfk3(contrib)               0.000   0.0      0.000   0.0             -1
- cgwf3-O(npw)                   0.000   0.0      0.000   0.0             -1
- 38   others                    0.000   0.0      0.000   0.0
-
- subtotal                      69.855   0.5     69.856   0.5

- For major independent code sections, cpu and wall times (sec),
- as well as % of the total time and number of calls 

- routine                         cpu     %       wall     %      number of calls 
-                                                                  (-1=no count)
- nonlop(apply)               2904.384  22.2   2904.968  22.2         285120
- fourwf(pot)                 1771.332  13.5   1770.191  13.5         285120
- vtowfk(ssdiag)              1139.438   8.7   1139.412   8.7           -108
- vtowfk(contrib)              768.519   5.9    768.495   5.9           2160
- rwwf                         220.333   1.7    220.340   1.7            108
- mkrho/=                      204.953   1.6    204.855   1.6           4320
- vtorho(4)mkrhpaw             182.389   1.4    182.560   1.4           4320
- fourdp                        92.874   0.7     93.010   0.7          11232
- nonlop(forstr)                63.059   0.5     62.977   0.5           2592
- abinit(2)                     27.795   0.2     27.787   0.2            108
- invars2                       27.174   0.2     27.172   0.2            108
- stress                        25.963   0.2     25.956   0.2            108
- ewald                         25.762   0.2     25.765   0.2            108
- getghc-other                  23.154   0.2     22.786   0.2           -108
- ewald2                        22.170   0.2     22.171   0.2            108
- pspini                        22.072   0.2     22.072   0.2            108
- symrhg(no FFT)                19.713   0.2     19.733   0.2           2160
- vtorho:synchro                14.805   0.1     14.861   0.1           2160
- forces                        10.146   0.1     10.147   0.1            108
- xc:pot/=fourdp                 7.725   0.1      7.724   0.1           2268
- mkcore                         6.126   0.0      6.126   0.0            324
- scfcv-scprqt                   5.445   0.0      5.598   0.0           2160
- vtorho  (1)                    4.505   0.0      4.410   0.0           2160
- vtorho-kpt loop                3.899   0.0      3.884   0.0           2160
- setsym                         2.335   0.0      2.310   0.0            108
- inwffil                        0.435   0.0      0.444   0.0            108
- vtowfk  (1)                    0.085   0.0      0.092   0.0           2160
- vtorho:MPI                     0.072   0.0      0.052   0.0           2160
- status                         0.046   0.0      0.045   0.0            582
- kpgsph                         0.027   0.0      0.022   0.0            216
- vtowfk3(contrib)               0.000   0.0      0.000   0.0           -108
- cgwf3-O(npw)                   0.000   0.0      0.000   0.0           -108
- 38   others                    0.000   0.0      0.000   0.0

- subtotal                    7596.739  58.0   7595.965  58.0

 Partitioning of abinit 
- abinit                     13088.417 100.0  13088.415 100.0            108
 
- abinit(1)                     19.330   0.1     19.332   0.1            108
- abinit(2)                     27.795   0.2     27.787   0.2            108
- invars2m                      29.399   0.2     29.395   0.2            108
- abinit(4)                      5.203   0.0      5.202   0.0            108
- abinit(5)                    106.524   0.8    106.529   0.8            108
- driver                     12900.100  98.6  12900.124  98.6            108
- abinit(6)                      0.039   0.0      0.036   0.0            108

- subtotal                   13088.389 100.0  13088.405 100.0

 Partitioning of driver 
- driver                     12900.100  98.6  12900.124  98.6            108
 
- gstateimg                  12898.697  98.6  12898.688  98.6            108

- subtotal                   12898.697  98.6  12898.688  98.6

 Partitioning of gstateimg+gstate 
- gstateimg                  12898.697  98.6  12898.688  98.6            108
 
- gstate->kpgsph                17.211   0.1     17.199   0.1            216
- gstate(pspini)                22.074   0.2     22.074   0.2            108
- gstate  (2)                    2.978   0.0      2.985   0.0            108
- test_ionmov                12421.763  94.9  12421.722  94.9            108
- gstate  (3)                  433.849   3.3    433.861   3.3            108

- subtotal                   12897.875  98.5  12897.841  98.5

 Partitioning of scfcv_core 
- scfcv                      12421.744  94.9  12421.720  94.9            108
 
- scfcv   (1)                   17.038   0.1     17.032   0.1            108
- setvtr                        32.252   0.2     32.252   0.2            216
- setvtr:mkcore                  1.171   0.0      1.172   0.0            108
- stress-mkcore                  1.580   0.0      1.578   0.0            108
- scfcv-read                     0.038   0.0      0.032   0.0           2160
- vtorho                     12083.305  92.3  12083.367  92.3           2160
- etotfor/=forces                0.032   0.0      0.037   0.0           4320
- scfcv-scprqt                   5.445   0.0      5.598   0.0           2160
- newvtr/newrho                 46.933   0.4     46.842   0.4           2160
- scfcv   (6)                  170.949   1.3    170.954   1.3            216
- scfcv :synchro                39.979   0.3     39.967   0.3            108
- stress                        25.963   0.2     25.956   0.2            108

- subtotal                   12424.686  94.9  12424.787  94.9

 Partitioning of etotfor/rhotov 
- etotfor/=forces                0.032   0.0      0.037   0.0           4320
- rhotov                        22.434   0.2     22.376   0.2           2160
- forces-mkcore                  3.377   0.0      3.376   0.0            108
- forces                        10.146   0.1     10.147   0.1            108

- subtotal                      35.989   0.3     35.936   0.3

 Partitioning of vtorho 
- vtorho                     12083.305  92.3  12083.367  92.3           2160
 
- vtorho  (1)                    4.505   0.0      4.410   0.0           2160
- vtowfk                     11616.501  88.8  11616.490  88.8           2160
- vtorho-kpt loop                3.899   0.0      3.884   0.0           2160
- vtorho:synchro                14.805   0.1     14.861   0.1           2160
- vtorho:MPI                     0.072   0.0      0.052   0.0           2160
- vtorho  (4)                  443.462   3.4    443.606   3.4           4320

- subtotal                   12083.244  92.3  12083.303  92.3

 Partitioning of vtowfk 
- vtowfk                     11616.501  88.8  11616.490  88.8           2160
 
- lobpcg                      9708.458  74.2   9708.491  74.2           2376
- subdiago                     982.761   7.5    982.761   7.5           2376
- orthon                         0.008   0.0      0.006   0.0           2376
- nonlocalpart                 648.883   5.0    648.942   5.0           2160

- subtotal                   11340.111  86.6  11340.200  86.6

 Partitioning of lobpcg 
- lobpcg                      9708.458  74.2   9708.491  74.2           2376
 
- prep_getghc%lobp            5392.762  41.2   5392.630  41.2         285120
- xprecon%lobpcg                 4.922   0.0      4.815   0.0         285120
- zheegv-dsyegv               1321.797  10.1   1323.215  10.1         513216

- subtotal                    6719.480  51.3   6720.660  51.3

 Partitioning of getghc 
- getghc                      4698.870  35.9   4697.945  35.9         285120
 
- fourwf%getghc               1771.332  13.5   1770.191  13.5         285120
- nonlop%getghc               2904.384  22.2   2904.968  22.2         285120
- getghc-other                  23.154   0.2     22.786   0.2           -108

- subtotal                    4698.870  35.9   4697.945  35.9

 Partitioning of fourwf 
- fourwf(total )              1930.352  14.7   1929.382  14.7         336672
 
- fourwf%getghc               1771.332  13.5   1770.191  13.5         285120
- fourwf%prep_four             159.020   1.2    159.191   1.2          51552

- subtotal                    1930.352  14.7   1929.382  14.7

 Partitioning of prep_getghc 
- prep_getghc%lobp            5392.762  41.2   5392.630  41.2         285120
 
- getghc%prep_getg            4698.870  35.9   4697.945  35.9         285120
- alltoall%prep_ge             662.018   5.1    663.386   5.1         570240

- subtotal                    5360.888  41.0   5361.331  41.0

 Partitioning of prep_fourwf 
- prep_fourwf                  190.552   1.5    190.442   1.5          51840
 
- fourwf%prep_four             159.020   1.2    159.191   1.2          51552
- alltoall%prep_fo              30.482   0.2     30.264   0.2          51840

- subtotal                     189.502   1.4    189.455   1.4

 Partitioning of sg_fourwf (disabled) 



 Partitioning of mkrho 
- mkrho%vtorho                 261.073   2.0    261.046   2.0           2160
 
- symrhg%mkrho                  56.069   0.4     56.130   0.4           2160
- prep_fourwf%mkrh             190.552   1.5    190.442   1.5          51840

- subtotal                     246.621   1.9    246.572   1.9
-
-Synchronisation (=leave_test) and MPI calls 
- communic.MPI                 192.919   1.5    194.051   1.5        1873692
-
- vtorho:MPI                     0.072   0.0      0.052   0.0           2160
- scfcv :synchro                39.979   0.3     39.967   0.3            108
- mkrho :synchro                 1.441   0.0      1.547   0.0           2160
- forstrnps:synchr               0.096   0.0      0.076   0.0            216
- vtorho:synchro                14.805   0.1     14.861   0.1           2160
- inwffil:synchro                0.139   0.0      0.129   0.0            108
- mkrho :MPIrhor                 0.019   0.0      0.032   0.0           2160
- alltoall%back_wf             833.790   6.4    831.753   6.4         336672
- alltoall%forw_wf             579.856   4.4    579.135   4.4         285120
-
- subtotal                    1470.197  11.2   1467.552  11.2

 Additional information 
- total timab                    0.000   0.0      0.000   0.0        5259606
- fourwf(total )              1930.352  14.7   1929.382  14.7         336672
- mklocl(2)                      3.541   0.0      3.542   0.0            108
- status                         0.046   0.0      0.045   0.0            582
- newocc                       180.464   1.4    180.599   1.4           2160
- nonlop(forstr)                63.059   0.5     62.977   0.5           2592
- nonlop(total)               2967.444  22.7   2967.945  22.7         287712


 Detailed analysis of some time consuming routines 
                                  tcpu    ncalls  tcpu/ncalls    ndata tcpu/ncalls/ndata
                                 (sec)                (msec)              (microsec)
- fourwf(pot)                 1771.332    285120       6.213     55296       0.112
- fourwf(den)                    0.000         0
- fourdp                        92.874     11232       8.269     27648       0.299
- nonlop(apply)               2904.384    285120      10.187      6313       1.614
- nonlop(forces)                 0.000         0
- nonlop(forstr)                63.059      2592      24.328      6313       3.854
- projbd                         0.000         0
- xc:pot/=fourdp                 7.725      2268       3.406     27648       0.123

================================================================================

 Suggested references for the acknowledgment of ABINIT usage.

 The users of ABINIT have little formal obligations with respect to the ABINIT group
 (those specified in the GNU General Public License, http://www.gnu.org/copyleft/gpl.txt).
 However, it is common practice in the scientific literature,
 to acknowledge the efforts of people that have made the research possible.
 In this spirit, please find below suggested citations of work written by ABINIT developers,
 corresponding to implementations inside of ABINIT that you have used in the present run.
 Note also that it will be of great value to readers of publications presenting these results,
 to read papers enabling them to understand the theoretical formalism and details
 of the ABINIT implementation.
 For information on why they are suggested, see also https://docs.abinit.org/theory/acknowledgments.
-
- [1] Large scale ab initio calculations based on three levels of parallelization
- F. Bottin, S. Leroux, A. Knyazev, G. Zerah, Comput. Mat. Science 42, 329, (2008).
- Comment : in case paral_kgb is non-zero. Strong suggestion to cite this paper in your publications.
- This paper is also available at http://www.arxiv.org/abs/0707.3405
-
- [2] ABINIT : First-principles approach of materials and nanosystem properties.
- X. Gonze, B. Amadon, P.-M. Anglade, J.-M. Beuken, F. Bottin, P. Boulanger, F. Bruneval,
- D. Caliste, R. Caracas, M. Cote, T. Deutsch, L. Genovese, Ph. Ghosez, M. Giantomassi
- S. Goedecker, D.R. Hamann, P. Hermet, F. Jollet, G. Jomard, S. Leroux, M. Mancini, S. Mazevet,
- M.J.T. Oliveira, G. Onida, Y. Pouillon, T. Rangel, G.-M. Rignanese, D. Sangalli, R. Shaltaf,
- M. Torrent, M.J. Verstraete, G. Zerah, J.W. Zwanziger
- Computer Phys. Comm. 180, 2582-2615 (2009).
- Comment : the third generic paper describing the ABINIT project.
- Note that a version of this paper, that is not formatted for Computer Phys. Comm. 
- is available at https://www.abinit.org/about/ABINIT_CPC_v10.pdf .
- The licence allows the authors to put it on the Web.
-
- [3] A brief introduction to the ABINIT software package.
- X. Gonze, G.-M. Rignanese, M. Verstraete, J.-M. Beuken, Y. Pouillon, R. Caracas, F. Jollet,
- M. Torrent, G. Zerah, M. Mikami, Ph. Ghosez, M. Veithen, J.-Y. Raty, V. Olevano, F. Bruneval,
- L. Reining, R. Godby, G. Onida, D.R. Hamann, and D.C. Allan.
- Z. Kristallogr. 220, 558-562 (2005).
- Comment : the second generic paper describing the ABINIT project. Note that this paper
- should be cited especially if you are using the GW part of ABINIT, as several authors
- of this part are not in the list of authors of the first or third paper.
- The .pdf of the latter paper is available at https://www.abinit.org/about/zfk_0505-06_558-562.pdf.
- Note that it should not redistributed (Copyright by Oldenburg Wissenshaftverlag,
- the licence allows the authors to put it on the Web).
-
-
- And optionally :
-
- [4] First-principles computation of material properties : the ABINIT software project. 
- X. Gonze, J.-M. Beuken, R. Caracas, F. Detraux, M. Fuchs, G.-M. Rignanese, L. Sindic,
- M. Verstraete, G. Zerah, F. Jollet, M. Torrent, A. Roy, M. Mikami, Ph. Ghosez, J.-Y. Raty, D.C. Allan.
- Computational Materials Science 25, 478-492 (2002). http://dx.doi.org/10.1016/S0927-0256(02)00325-7
- Comment : the original paper describing the ABINIT project.
-
- [5] Fast radix 2, 3, 4 and 5 kernels for Fast Fourier Transformations
- on computers with overlapping multiply-add instructions.
- S. Goedecker, SIAM J. on Scientific Computing 18, 1605 (1997).
-
- Proc.   0 individual time (sec): cpu=        121.4  wall=        121.4

================================================================================

 Calculation completed.
.Delivered    1 WARNINGs and   4 COMMENTs to log file.
+Overall time at end (sec) : cpu=      13104.7  wall=      13104.7
