
.Version 9.3.3 of ABINIT 
.(MPI version, prepared for a x86_64_linux_gnu9.3 computer) 

.Copyright (C) 1998-2021 ABINIT group . 
 ABINIT comes with ABSOLUTELY NO WARRANTY.
 It is free software, and you are welcome to redistribute it
 under certain conditions (GNU General Public License,
 see ~abinit/COPYING or http://www.gnu.org/copyleft/gpl.txt).

 ABINIT is a project of the Universite Catholique de Louvain,
 Corning Inc. and other collaborators, see ~abinit/doc/developers/contributors.txt .
 Please read https://docs.abinit.org/theory/acknowledgments for suggested
 acknowledgments of the ABINIT effort.
 For more information, see https://www.abinit.org .

.Starting date : Fri 18 Dec 2020.
- ( at 13h12 )
  
- input  file    -> /home/buildbot/ABINIT/alps_gnu_9.3_openmpi/biederj_beauty/tests/Test_suite/tutoparal_timages_01_MPI1/timages_01.abi
- output file    -> timages_01_MPI1.abo
- root for input  files -> timages_01_MPI1i
- root for output files -> timages_01_MPI1o


 Symmetries : space group P1 (#  1); Bravais aP (primitive triclinic)
================================================================================
 Values of the parameters that define the memory need of the present run
     intxc =       0    ionmov =       2      iscf =      17    lmnmax =       8
     lnmax =       4     mgfft =      80  mpssoang =       2    mqgrid =    5410
     natom =       8  nloc_mem =       2    nspden =       1   nspinor =       1
    nsppol =       1      nsym =       1    n1xccc =       1    ntypat =       3
    occopt =       1   xclevel =       1
-    mband =          10        mffmem =           1         mkmem =           1
       mpw =        3654          nfft =      128000          nkpt =           1
 PAW method is used; the additional fine FFT grid is defined by:
   mgfftf=       120    nfftf =    349920
================================================================================
P This job should need less than                      76.438 Mbytes of memory.
  Rough estimation (10% accuracy) of disk space for files :
_ WF disk file :      0.560 Mbytes ; DEN or POT disk file :      2.672 Mbytes.
================================================================================

--------------------------------------------------------------------------------
------------- Echo of variables that govern the present computation ------------
--------------------------------------------------------------------------------
-
- outvars: echo of selected default values                                      
-   iomode0 =  0 , fftalg0 =312 , wfoptalg0 = 10
-
- outvars: echo of global parameters not present in the input file              
-  max_nthreads =    0
-
 -outvars: echo values of preprocessed input variables --------
-          iomode           1
            acell      1.9000000000E+01  9.4500000000E+00  9.4500000000E+00 Bohr
              amu      1.59994000E+01  1.40067400E+01  1.00794000E+00
           bandpp          10
       cellcharge      1.00000000E+00
     densfor_pred           6
             ecut      2.00000000E+01 Hartree
-          fftalg         312
           iatfix        1    4
           ionmov           2
           istwfk        2
              ixc           2
           kptopt           0
P           mkmem           1
           natfix           2
            natom           8
            nband          10
            ngfft          80      40      40
          ngfftdg         120      54      54
             nkpt           1
            nstep          50
             nsym           1
            ntime         500
           ntypat           3
              occ      2.000000  2.000000  2.000000  2.000000  2.000000  2.000000
                       2.000000  2.000000  0.000000  0.000000
        optforces           1
        paral_kgb           1
        pawecutdg      4.00000000E+01 Hartree
          spgroup           1
           toldff      5.00000000E-07
            typat      1  3  3  2  3  3  3  3
           useylm           1
         wfoptalg         114
           xangst      0.0000000000E+00  0.0000000000E+00  0.0000000000E+00
                      -3.7590000000E-01 -2.8590000000E-01  8.7100000000E-01
                      -3.8440000000E-01  8.6760000000E-01 -2.8540000000E-01
                       4.0000000000E+00  0.0000000000E+00  0.0000000000E+00
                       4.3460000000E+00 -9.9790000000E-02 -9.5450000000E-01
                       4.3190000000E+00 -7.8670000000E-01  5.6700000000E-01
                       4.3410000000E+00  8.7360000000E-01  4.0230000000E-01
                       1.0280000000E+00  2.2700000000E-02  1.5680000000E-02
            xcart      0.0000000000E+00  0.0000000000E+00  0.0000000000E+00
                      -7.1034805335E-01 -5.4027270139E-01  1.6459514617E+00
                      -7.2641072548E-01  1.6395263929E+00 -5.3932783833E-01
                       7.5589045315E+00  0.0000000000E+00  0.0000000000E+00
                       8.2127497735E+00 -1.8857577080E-01 -1.8037435938E+00
                       8.1617271679E+00 -1.4866475487E+00  1.0714747173E+00
                       8.2033011429E+00  1.6508647497E+00  7.6023682326E-01
                       1.9426384646E+00  4.2896783217E-02  2.9630905764E-02
             xred      0.0000000000E+00  0.0000000000E+00  0.0000000000E+00
                      -3.7386739650E-02 -5.7171714433E-02  1.7417475786E-01
                      -3.8232143446E-02  1.7349485639E-01 -5.7071728923E-02
                       3.9783708061E-01  0.0000000000E+00  0.0000000000E+00
                       4.3224998808E-01 -1.9955108021E-02 -1.9087233797E-01
                       4.2956458779E-01 -1.5731720092E-01  1.1338356797E-01
                       4.3175269173E-01  1.7469468251E-01  8.0448341086E-02
                       1.0224412972E-01  4.5393421393E-03  3.1355455835E-03
            znucl        8.00000    7.00000    1.00000

================================================================================

 chkinp: Checking input parameters for consistency.

================================================================================
== DATASET  1 ==================================================================
-   mpi_nproc: 1, omp_nthreads: -1 (-1 if OMP is not activated)


--- !DatasetInfo
iteration_state: {dtset: 1, }
dimensions: {natom: 8, nkpt: 1, mband: 10, nsppol: 1, nspinor: 1, nspden: 1, mpw: 3654, }
cutoff_energies: {ecut:  20.0, pawecutdg:  40.0, }
electrons: {nelect:   1.60000000E+01, charge:   1.00000000E+00, occopt:   1.00000000E+00, tsmear:   1.00000000E-02, }
meta: {optdriver: 0, ionmov: 2, optcell: 0, iscf: 17, paral_kgb: 1, }
...

 Exchange-correlation functional for the present dataset will be:
  LDA: Perdew-Zunger-Ceperley-Alder - ixc=2
 Citation for XC functional:
  J.P.Perdew and A.Zunger, PRB 23, 5048 (1981)

 Real(R)+Recip(G) space primitive vectors, cartesian coordinates (Bohr,Bohr^-1):
 R(1)= 19.0000000  0.0000000  0.0000000  G(1)=  0.0526316  0.0000000  0.0000000
 R(2)=  0.0000000  9.4500000  0.0000000  G(2)=  0.0000000  0.1058201  0.0000000
 R(3)=  0.0000000  0.0000000  9.4500000  G(3)=  0.0000000  0.0000000  0.1058201
 Unit cell volume ucvol=  1.6967475E+03 bohr^3
 Angles (23,13,12)=  9.00000000E+01  9.00000000E+01  9.00000000E+01 degrees

 Coarse grid specifications (used for wave-functions):

 getcut: wavevector=  0.0000  0.0000  0.0000  ngfft=  80  40  40
         ecut(hartree)=     20.000   => boxcut(ratio)=   2.09149

 Fine grid specifications (used for densities):

 getcut: wavevector=  0.0000  0.0000  0.0000  ngfft= 120  54  54
         ecut(hartree)=     40.000   => boxcut(ratio)=   2.00709

--- Pseudopotential description ------------------------------------------------
- pspini: atom type   1  psp file is /home/buildbot/ABINIT/alps_gnu_9.3_openmpi/biederj_beauty/tests/Psps_for_tests/8o_hard.paw
- pspatm: opening atomic psp file    /home/buildbot/ABINIT/alps_gnu_9.3_openmpi/biederj_beauty/tests/Psps_for_tests/8o_hard.paw
- oxygen - PAW data extracted from US-psp (D.Vanderbilt) - generated by USpp2Abinit v2.3.0
-  8.00000   6.00000  20090106                znucl, zion, pspdat
    7    2    1    0       489   0.00000      pspcod,pspxc,lmax,lloc,mmax,r2well
 Pseudopotential format is: paw4
 basis_size (lnmax)=  4 (lmn_size=  8), orbitals=   0   0   1   1
 Spheres core radius: rc_sph= 1.11262345
 5 radial meshes are used:
  - mesh 1: r(i)=AA*[exp(BB*(i-1))-1], size= 489 , AA= 0.30984E-03 BB= 0.16949E-01
  - mesh 2: r(i)=AA*[exp(BB*(i-1))-1], size= 548 , AA= 0.30984E-03 BB= 0.16949E-01
  - mesh 3: r(i)=AA*[exp(BB*(i-1))-1], size= 506 , AA= 0.30984E-03 BB= 0.16949E-01
  - mesh 4: r(i)=AA*[exp(BB*(i-1))-1], size= 613 , AA= 0.30984E-03 BB= 0.16949E-01
  - mesh 5: r(i)=AA*[exp(BB*(i-1))-1], size= 608 , AA= 0.30984E-03 BB= 0.16949E-01
 Shapefunction is BESSEL type: shapef(r,l)=aa(1,l)*jl(q(1,l)*r)+aa(2,l)*jl(q(2,l)*r)
 Radius for shape functions = sphere core radius
 Radial grid used for partial waves is grid 1
 Radial grid used for projectors is grid  2
 Radial grid used for (t)core density is grid 3
 Radial grid used for Vloc is grid 4
 Radial grid used for pseudo valence density is grid 5
 Compensation charge density is taken into account in XC energy/potential
 pspatm: atomic psp has been read  and splines computed

- pspini: atom type   2  psp file is /home/buildbot/ABINIT/alps_gnu_9.3_openmpi/biederj_beauty/tests/Psps_for_tests/7n.paw
- pspatm: opening atomic psp file    /home/buildbot/ABINIT/alps_gnu_9.3_openmpi/biederj_beauty/tests/Psps_for_tests/7n.paw
- nitrogen - PAW data extracted from US-psp (D.Vanderbilt) - generated by USpp2Abinit v2.3.0
-  7.00000   5.00000  20090106                znucl, zion, pspdat
    7    2    1    0       481   0.00000      pspcod,pspxc,lmax,lloc,mmax,r2well
 Pseudopotential format is: paw4
 basis_size (lnmax)=  4 (lmn_size=  8), orbitals=   0   0   1   1
 Spheres core radius: rc_sph= 1.11028687
 4 radial meshes are used:
  - mesh 1: r(i)=AA*[exp(BB*(i-1))-1], size= 481 , AA= 0.35411E-03 BB= 0.16949E-01
  - mesh 2: r(i)=AA*[exp(BB*(i-1))-1], size= 540 , AA= 0.35411E-03 BB= 0.16949E-01
  - mesh 3: r(i)=AA*[exp(BB*(i-1))-1], size= 507 , AA= 0.35411E-03 BB= 0.16949E-01
  - mesh 4: r(i)=AA*[exp(BB*(i-1))-1], size= 605 , AA= 0.35411E-03 BB= 0.16949E-01
 Shapefunction is BESSEL type: shapef(r,l)=aa(1,l)*jl(q(1,l)*r)+aa(2,l)*jl(q(2,l)*r)
 Radius for shape functions = sphere core radius
 Radial grid used for partial waves is grid 1
 Radial grid used for projectors is grid  2
 Radial grid used for (t)core density is grid 3
 Radial grid used for Vloc is grid 4
 Radial grid used for pseudo valence density is grid 4
 Compensation charge density is taken into account in XC energy/potential
 pspatm: atomic psp has been read  and splines computed

- pspini: atom type   3  psp file is /home/buildbot/ABINIT/alps_gnu_9.3_openmpi/biederj_beauty/tests/Psps_for_tests/1h.paw
- pspatm: opening atomic psp file    /home/buildbot/ABINIT/alps_gnu_9.3_openmpi/biederj_beauty/tests/Psps_for_tests/1h.paw
- hydrogen - PAW data extracted from US-psp (D.Vanderbilt) - generated by USpp2Abinit v2.3.0
-  1.00000   1.00000  20090106                znucl, zion, pspdat
    7    2    0    0       347   0.00000      pspcod,pspxc,lmax,lloc,mmax,r2well
 Pseudopotential format is: paw4
 basis_size (lnmax)=  1 (lmn_size=  1), orbitals=   0
 Spheres core radius: rc_sph= 0.79976805
 4 radial meshes are used:
  - mesh 1: r(i)=AA*[exp(BB*(i-1))-1], size= 347 , AA= 0.24788E-02 BB= 0.16949E-01
  - mesh 2: r(i)=AA*[exp(BB*(i-1))-1], size= 344 , AA= 0.24788E-02 BB= 0.16949E-01
  - mesh 3: r(i)=AA*[exp(BB*(i-1))-1], size= 490 , AA= 0.24788E-02 BB= 0.16949E-01
  - mesh 4: r(i)=AA*[exp(BB*(i-1))-1], size= 492 , AA= 0.24788E-02 BB= 0.16949E-01
 Shapefunction is BESSEL type: shapef(r,l)=aa(1,l)*jl(q(1,l)*r)+aa(2,l)*jl(q(2,l)*r)
 Radius for shape functions = sphere core radius
 Radial grid used for partial waves is grid 1
 Radial grid used for projectors is grid  2
 Radial grid used for (t)core density is grid 1
 Radial grid used for Vloc is grid 3
 Radial grid used for pseudo valence density is grid 4
 Compensation charge density is taken into account in XC energy/potential
 pspatm: atomic psp has been read  and splines computed

   1.09721832E+02                                ecore*ucvol(ha*bohr**3)
--------------------------------------------------------------------------------

_setup2: Arith. and geom. avg. npw (full set) are    7307.000    7307.000

================================================================================

=== [ionmov= 2] Broyden-Fletcher-Goldfard-Shanno method (forces)            
================================================================================

--- Iteration: (  1/500) Internal Cycle: (1/1)
--------------------------------------------------------------------------------

---SELF-CONSISTENT-FIELD CONVERGENCE--------------------------------------------

--- !BeginCycle
iteration_state: {dtset: 1, itime: 1, icycle: 1, }
solver: {iscf: 17, nstep: 50, nline: 4, wfoptalg: 114, }
tolerances: {toldff: 5.00E-07, }
...

     iter   Etot(hartree)      deltaE(h)  residm     nres2    diffor    maxfor
 ETOT  1  -29.604952999943    -2.960E+01 1.915E-04 4.101E+01 6.455E-02 6.455E-02
 ETOT  2  -29.480665379296     1.243E-01 4.029E-07 1.170E+01 7.498E-02 1.254E-02
 ETOT  3  -29.460748912198     1.992E-02 3.981E-07 1.156E+00 1.786E-02 1.768E-02
 ETOT  4  -29.451136430476     9.612E-03 7.845E-06 1.602E-01 4.789E-03 1.312E-02
 ETOT  5  -29.448536528174     2.600E-03 1.159E-05 7.648E-02 1.349E-03 1.220E-02
 ETOT  6  -29.445342736846     3.194E-03 2.477E-05 3.250E-02 2.677E-03 9.524E-03
 ETOT  7  -29.444151830176     1.191E-03 3.522E-06 2.143E-02 1.980E-03 7.544E-03
 ETOT  8  -29.443644868616     5.070E-04 9.814E-07 1.361E-02 1.390E-03 6.154E-03
 ETOT  9  -29.443493080276     1.518E-04 3.593E-07 6.409E-03 1.933E-03 4.221E-03
 ETOT 10  -29.443563100172    -7.002E-05 8.653E-08 2.473E-03 1.656E-03 2.565E-03
 ETOT 11  -29.443884728850    -3.216E-04 7.870E-07 2.424E-04 1.885E-03 6.804E-04
 ETOT 12  -29.443907643495    -2.291E-05 1.146E-07 2.770E-04 1.614E-04 8.418E-04
 ETOT 13  -29.444015232403    -1.076E-04 1.313E-06 1.677E-05 7.272E-04 2.111E-04
 ETOT 14  -29.444023680086    -8.448E-06 1.426E-07 7.968E-06 9.198E-05 1.950E-04
 ETOT 15  -29.444029170824    -5.491E-06 1.151E-07 3.999E-06 4.486E-05 1.921E-04
 ETOT 16  -29.444030655348    -1.485E-06 1.143E-08 2.600E-06 2.580E-05 1.871E-04
 ETOT 17  -29.444032103825    -1.448E-06 7.073E-09 1.535E-06 9.821E-06 1.849E-04
 ETOT 18  -29.444033032740    -9.289E-07 1.271E-09 7.774E-07 1.084E-05 1.887E-04
 ETOT 19  -29.444033815674    -7.829E-07 1.279E-08 2.934E-07 1.311E-05 1.835E-04
 ETOT 20  -29.444033982096    -1.664E-07 1.117E-09 1.181E-07 8.178E-06 1.862E-04
 ETOT 21  -29.444034152298    -1.702E-07 2.972E-09 1.204E-08 4.094E-06 1.869E-04
 ETOT 22  -29.444034163923    -1.163E-08 3.140E-10 2.142E-09 2.876E-06 1.867E-04
 ETOT 23  -29.444034167214    -3.291E-09 2.811E-10 3.418E-10 1.209E-06 1.866E-04
 ETOT 24  -29.444034167413    -1.989E-10 4.579E-12 8.332E-11 4.086E-07 1.867E-04
 ETOT 25  -29.444034167434    -2.065E-11 6.986E-13 1.707E-11 2.800E-07 1.867E-04

 At SCF step   25, forces are converged : 
  for the second time, max diff in force=  2.800E-07 < toldff=  5.000E-07

 Cartesian components of stress tensor (hartree/bohr^3)
  sigma(1 1)=  1.12961525E-04  sigma(3 2)= -1.64531688E-06
  sigma(2 2)=  1.50225493E-05  sigma(3 1)= -9.32003989E-07
  sigma(3 3)=  1.57480886E-05  sigma(2 1)= -7.44590327E-07


--- !ResultsGS
iteration_state: {dtset: 1, itime: 1, icycle: 1, }
comment   : Summary of ground state results
lattice_vectors:
- [ 19.0000000,   0.0000000,   0.0000000, ]
- [  0.0000000,   9.4500000,   0.0000000, ]
- [  0.0000000,   0.0000000,   9.4500000, ]
lattice_lengths: [  19.00000,    9.45000,    9.45000, ]
lattice_angles: [ 90.000,  90.000,  90.000, ] # degrees, (23, 13, 12)
lattice_volume:   1.6967475E+03
convergence: {deltae: -2.065E-11, res2:  1.707E-11, residm:  6.986E-13, diffor:  2.800E-07, }
etotal    :  -2.94440342E+01
entropy   :   0.00000000E+00
fermie    :  -1.62396837E-01
cartesian_stress_tensor: # hartree/bohr^3
- [  1.12961525E-04,  -7.44590327E-07,  -9.32003989E-07, ]
- [ -7.44590327E-07,   1.50225493E-05,  -1.64531688E-06, ]
- [ -9.32003989E-07,  -1.64531688E-06,   1.57480886E-05, ]
pressure_GPa:  -1.4096E+00
xred      :
- [  0.0000E+00,   0.0000E+00,   0.0000E+00,  O]
- [ -3.7387E-02,  -5.7172E-02,   1.7417E-01,  H]
- [ -3.8232E-02,   1.7349E-01,  -5.7072E-02,  H]
- [  3.9784E-01,   0.0000E+00,   0.0000E+00,  N]
- [  4.3225E-01,  -1.9955E-02,  -1.9087E-01,  H]
- [  4.2956E-01,  -1.5732E-01,   1.1338E-01,  H]
- [  4.3175E-01,   1.7469E-01,   8.0448E-02,  H]
- [  1.0224E-01,   4.5393E-03,   3.1355E-03,  H]
cartesian_forces: # hartree/bohr
- [  1.38488477E-02,  -1.73961341E-04,  -3.37833530E-04, ]
- [ -9.32018654E-05,   2.26262272E-05,   8.01092874E-05, ]
- [ -5.95788918E-05,   2.14079189E-05,   3.78046734E-05, ]
- [ -1.39808182E-02,   2.96535545E-05,   3.94312211E-04, ]
- [  8.49994240E-05,  -2.17185753E-05,  -1.48611350E-04, ]
- [  2.00585704E-05,  -2.91440706E-05,  -1.65062679E-05, ]
- [  1.21148521E-04,   1.86745418E-04,   3.10227087E-05, ]
- [  5.85447283E-05,  -3.56091315E-05,  -4.02977334E-05, ]
force_length_stats: {min:   3.90407476E-05, max:   1.39864091E-02, mean:   3.56937893E-03, }
...

 Integrated electronic density in atomic spheres:
 ------------------------------------------------
 Atom  Sphere_radius  Integrated_density
    1        1.11262          3.35670778
    2        0.79977          0.31895570
    3        0.79977          0.31946412
    4        1.11029          2.25998802
    5        0.79977          0.35379355
    6        0.79977          0.34859961
    7        0.79977          0.34978171
    8        0.79977          0.28461278

 PAW TEST:
 ==== Compensation charge inside spheres ============
 The following values must be close to each other ...
 Compensation charge over spherical meshes =      1.223533507218540
 Compensation charge over fine fft grid    =      1.223548286354105

 ==== Results concerning PAW augmentation regions ====

 Total pseudopotential strength Dij (hartree):
 Atom #  1
   1.10698   1.76336  -0.00276  -0.00275  -0.00055  -0.00415  -0.00414  -0.00084
   1.76336   2.80845  -0.00419  -0.00418  -0.00084  -0.00632  -0.00630  -0.00128
  -0.00276  -0.00419  -0.48672   0.00421   0.00175  -0.55328   0.00564   0.00234
  -0.00275  -0.00418   0.00421  -0.48677   0.00173   0.00564  -0.55334   0.00232
  -0.00055  -0.00084   0.00175   0.00173  -0.48946   0.00234   0.00232  -0.55694
  -0.00415  -0.00632  -0.55328   0.00564   0.00234  -0.58746   0.00752   0.00312
  -0.00414  -0.00630   0.00564  -0.55334   0.00232   0.00752  -0.58754   0.00309
  -0.00084  -0.00128   0.00234   0.00232  -0.55694   0.00312   0.00309  -0.59234
 Atom #  8
  -0.04873


 Augmentation waves occupancies Rhoij:
 Atom #  1
   2.36995  -0.22592   0.12204   0.12179   0.01847  -0.07896  -0.07876  -0.01519
  -0.22592   0.03356  -0.07110  -0.07090  -0.01405   0.00193   0.00195   0.00053
   0.12204  -0.07110   1.08202  -0.15186  -0.06311  -0.02617   0.10297   0.04233
   0.12179  -0.07090  -0.15186   1.08383  -0.06244   0.10297  -0.02736   0.04191
   0.01847  -0.01405  -0.06311  -0.06244   1.17036   0.04229   0.04187  -0.09260
  -0.07896   0.00193  -0.02617   0.10297   0.04229   0.01548   0.00184   0.00139
  -0.07876   0.00195   0.10297  -0.02736   0.04187   0.00184   0.01546   0.00140
  -0.01519   0.00053   0.04233   0.04191  -0.09260   0.00139   0.00140   0.01296
 Atom #  8
   1.40452



---OUTPUT-----------------------------------------------------------------------

 Cartesian coordinates (xcart) [bohr]
  0.00000000000000E+00  0.00000000000000E+00  0.00000000000000E+00
 -7.10348053351713E-01 -5.40272701392005E-01  1.64595146174340E+00
 -7.26410725481241E-01  1.63952639289158E+00 -5.39327838325563E-01
  7.55890453154257E+00  0.00000000000000E+00  0.00000000000000E+00
  8.21274977352101E+00 -1.88575770800658E-01 -1.80374359383935E+00
  8.16172716793309E+00 -1.48664754874114E+00  1.07147471734616E+00
  8.20330114285658E+00  1.65086474968890E+00  7.60236823259894E-01
  1.94263846460644E+00  4.28967832165041E-02  2.96309057636469E-02
 Reduced coordinates (xred)
  0.00000000000000E+00  0.00000000000000E+00  0.00000000000000E+00
 -3.73867396500902E-02 -5.71717144330164E-02  1.74174757856444E-01
 -3.82321434463811E-02  1.73494856390643E-01 -5.70717289233400E-02
  3.97837080607504E-01  0.00000000000000E+00  0.00000000000000E+00
  4.32249988080053E-01 -1.99551080212336E-02 -1.90872337972418E-01
  4.29564587785952E-01 -1.57317200924988E-01  1.13383567973139E-01
  4.31752691729294E-01  1.74694682506762E-01  8.04483410857031E-02
  1.02244129716128E-01  4.53934213931260E-03  3.13554558345470E-03
 Cartesian forces (fcart) [Ha/bohr]; max,rms= 1.86745E-04 7.78859E-05 (free atoms)
  1.38488477359215E-02 -1.73961340816368E-04 -3.37833530016469E-04
 -9.32018653848522E-05  2.26262272073148E-05  8.01092874009121E-05
 -5.95788918292566E-05  2.14079189142594E-05  3.78046734237528E-05
 -1.39808182221683E-02  2.96535545304899E-05  3.94312211407069E-04
  8.49994239582348E-05 -2.17185753372110E-05 -1.48611349723769E-04
  2.00585703614379E-05 -2.91440705811096E-05 -1.65062678510658E-05
  1.21148520879684E-04  1.86745417607772E-04  3.10227087335338E-05
  5.85447282615610E-05 -3.56091315251474E-05 -4.02977333739637E-05
 Gradient of E wrt nuclear positions in reduced coordinates (gred)
 -2.63128106982509E-01  1.64393467071468E-03  3.19252685865564E-03
  1.77083544231219E-03 -2.13817847109124E-04 -7.57032765938619E-04
  1.13199894475588E-03 -2.02304833739752E-04 -3.57254163854464E-04
  2.65635546221198E-01 -2.80226090313130E-04 -3.72625039779680E-03
 -1.61498905520646E-03  2.05240536936644E-04  1.40437725488962E-03
 -3.81112836867321E-04  2.75411466991486E-04  1.55984231192572E-04
 -2.30182189671400E-03 -1.76474419639345E-03 -2.93164597531895E-04
 -1.11234983696966E-03  3.36506292912643E-04  3.80813580383957E-04
 Total energy (etotal) [Ha]= -2.94440341674336E+01

--- Iteration: (  2/500) Internal Cycle: (1/1)
--------------------------------------------------------------------------------

---SELF-CONSISTENT-FIELD CONVERGENCE--------------------------------------------

--- !BeginCycle
iteration_state: {dtset: 1, itime: 2, icycle: 1, }
solver: {iscf: 17, nstep: 50, nline: 4, wfoptalg: 114, }
tolerances: {toldff: 5.00E-07, }
...

     iter   Etot(hartree)      deltaE(h)  residm     nres2    diffor    maxfor
 ETOT  1  -29.444034262153    -2.944E+01 6.598E-12 1.826E-06 6.460E-05 1.221E-04
 ETOT  2  -29.444034259350     2.803E-09 3.469E-13 6.630E-07 2.632E-05 9.656E-05
 ETOT  3  -29.444034257961     1.389E-09 5.521E-14 1.813E-08 9.659E-06 1.052E-04
 ETOT  4  -29.444034257965    -3.315E-12 2.230E-14 1.506E-09 1.227E-06 1.040E-04
 ETOT  5  -29.444034257974    -9.006E-12 2.500E-14 2.848E-10 1.824E-07 1.042E-04
 ETOT  6  -29.444034257989    -1.531E-11 8.396E-14 1.266E-10 1.520E-07 1.043E-04

 At SCF step    6, forces are converged : 
  for the second time, max diff in force=  1.520E-07 < toldff=  5.000E-07

 Cartesian components of stress tensor (hartree/bohr^3)
  sigma(1 1)=  1.13024412E-04  sigma(3 2)= -1.61856597E-06
  sigma(2 2)=  1.51275905E-05  sigma(3 1)= -9.63618281E-07
  sigma(3 3)=  1.58794893E-05  sigma(2 1)= -7.21844726E-07


--- !ResultsGS
iteration_state: {dtset: 1, itime: 2, icycle: 1, }
comment   : Summary of ground state results
lattice_vectors:
- [ 19.0000000,   0.0000000,   0.0000000, ]
- [  0.0000000,   9.4500000,   0.0000000, ]
- [  0.0000000,   0.0000000,   9.4500000, ]
lattice_lengths: [  19.00000,    9.45000,    9.45000, ]
lattice_angles: [ 90.000,  90.000,  90.000, ] # degrees, (23, 13, 12)
lattice_volume:   1.6967475E+03
convergence: {deltae: -1.531E-11, res2:  1.266E-10, residm:  8.396E-14, diffor:  1.520E-07, }
etotal    :  -2.94440343E+01
entropy   :   0.00000000E+00
fermie    :  -1.62396884E-01
cartesian_stress_tensor: # hartree/bohr^3
- [  1.13024412E-04,  -7.21844726E-07,  -9.63618281E-07, ]
- [ -7.21844726E-07,   1.51275905E-05,  -1.61856597E-06, ]
- [ -9.63618281E-07,  -1.61856597E-06,   1.58794893E-05, ]
pressure_GPa:  -1.4125E+00
xred      :
- [  0.0000E+00,   0.0000E+00,   0.0000E+00,  O]
- [ -3.7392E-02,  -5.7169E-02,   1.7418E-01,  H]
- [ -3.8235E-02,   1.7350E-01,  -5.7068E-02,  H]
- [  3.9784E-01,   0.0000E+00,   0.0000E+00,  N]
- [  4.3225E-01,  -1.9957E-02,  -1.9089E-01,  H]
- [  4.2957E-01,  -1.5732E-01,   1.1338E-01,  H]
- [  4.3176E-01,   1.7471E-01,   8.0452E-02,  H]
- [  1.0225E-01,   4.5356E-03,   3.1313E-03,  H]
cartesian_forces: # hartree/bohr
- [  1.38351369E-02,  -1.74780123E-04,  -3.03566308E-04, ]
- [ -6.97336230E-05,   3.26692445E-05,   4.13488488E-05, ]
- [ -4.86959309E-05,   1.02979031E-05,   3.88073959E-05, ]
- [ -1.39298509E-02,   9.49761952E-05,   3.61987650E-04, ]
- [  6.12593189E-05,  -1.36369365E-05,  -7.86001075E-05, ]
- [  1.98606366E-05,  -2.03227026E-05,  -1.89042006E-05, ]
- [  9.25223952E-05,   1.04258010E-04,  -4.10946621E-06, ]
- [  3.95012036E-05,  -3.34615908E-05,  -3.69638126E-05, ]
force_length_stats: {min:   3.41295463E-05, max:   1.39348771E-02, mean:   3.53284274E-03, }
...

 Integrated electronic density in atomic spheres:
 ------------------------------------------------
 Atom  Sphere_radius  Integrated_density
    1        1.11262          3.35667405
    2        0.79977          0.31895321
    3        0.79977          0.31946473
    4        1.11029          2.25990877
    5        0.79977          0.35378951
    6        0.79977          0.34859929
    7        0.79977          0.34977498
    8        0.79977          0.28461010

 PAW TEST:
 ==== Compensation charge inside spheres ============
 The following values must be close to each other ...
 Compensation charge over spherical meshes =      1.223486836197468
 Compensation charge over fine fft grid    =      1.223501525054658

 ==== Results concerning PAW augmentation regions ====

 Total pseudopotential strength Dij (hartree):
 Atom #  1
   1.10698   1.76336  -0.00276  -0.00275  -0.00055  -0.00415  -0.00414  -0.00084
   1.76336   2.80845  -0.00419  -0.00418  -0.00084  -0.00632  -0.00630  -0.00128
  -0.00276  -0.00419  -0.48672   0.00421   0.00175  -0.55327   0.00564   0.00234
  -0.00275  -0.00418   0.00421  -0.48677   0.00173   0.00564  -0.55334   0.00232
  -0.00055  -0.00084   0.00175   0.00173  -0.48946   0.00234   0.00232  -0.55694
  -0.00415  -0.00632  -0.55327   0.00564   0.00234  -0.58745   0.00752   0.00312
  -0.00414  -0.00630   0.00564  -0.55334   0.00232   0.00752  -0.58754   0.00309
  -0.00084  -0.00128   0.00234   0.00232  -0.55694   0.00312   0.00309  -0.59234
 Atom #  8
  -0.04873


 Augmentation waves occupancies Rhoij:
 Atom #  1
   2.36989  -0.22590   0.12205   0.12176   0.01846  -0.07897  -0.07875  -0.01518
  -0.22590   0.03355  -0.07110  -0.07089  -0.01405   0.00193   0.00194   0.00053
   0.12205  -0.07110   1.08198  -0.15182  -0.06313  -0.02615   0.10295   0.04234
   0.12176  -0.07089  -0.15182   1.08376  -0.06244   0.10296  -0.02734   0.04192
   0.01846  -0.01405  -0.06313  -0.06244   1.17032   0.04230   0.04187  -0.09259
  -0.07897   0.00193  -0.02615   0.10296   0.04230   0.01548   0.00184   0.00139
  -0.07875   0.00194   0.10295  -0.02734   0.04187   0.00184   0.01546   0.00140
  -0.01518   0.00053   0.04234   0.04192  -0.09259   0.00139   0.00140   0.01296
 Atom #  8
   1.40441



---OUTPUT-----------------------------------------------------------------------

 Cartesian coordinates (xcart) [bohr]
  0.00000000000000E+00  0.00000000000000E+00  0.00000000000000E+00
 -7.10441255217098E-01 -5.40250075164798E-01  1.64603157103080E+00
 -7.26470304373070E-01  1.63954780081049E+00 -5.39290033652139E-01
  7.55890453154257E+00  0.00000000000000E+00  0.00000000000000E+00
  8.21283477294497E+00 -1.88597489375995E-01 -1.80389220518907E+00
  8.16174722650345E+00 -1.48667669281172E+00  1.07145821107831E+00
  8.20342229137746E+00  1.65105149510651E+00  7.60267845968627E-01
  1.94269700933470E+00  4.28611740849789E-02  2.95906080302729E-02
 Reduced coordinates (xred)
  0.00000000000000E+00  0.00000000000000E+00  0.00000000000000E+00
 -3.73916450114262E-02 -5.71693201232590E-02  1.74183235029714E-01
 -3.82352791775300E-02  1.73497121778888E-01 -5.70677284287978E-02
  3.97837080607504E-01  0.00000000000000E+00  0.00000000000000E+00
  4.32254461733946E-01 -1.99574062831741E-02 -1.90888064041172E-01
  4.29565643500182E-01 -1.57320284953621E-01  1.13381821278128E-01
  4.31759067967235E-01  1.74714443926615E-01  8.04516239120241E-02
  1.02247211017616E-01  4.53557397724645E-03  3.13128127304476E-03
 Cartesian forces (fcart) [Ha/bohr]; max,rms= 1.04258E-04 5.07707E-05 (free atoms)
  1.38351368636042E-02 -1.74780122673198E-04 -3.03566307505574E-04
 -6.97336230293921E-05  3.26692444851724E-05  4.13488487522665E-05
 -4.86959309385883E-05  1.02979030846208E-05  3.88073959459508E-05
 -1.39298508639632E-02  9.49761952306449E-05  3.61987649730873E-04
  6.12593188756382E-05 -1.36369364839710E-05 -7.86001075095431E-05
  1.98606366375054E-05 -2.03227026064860E-05 -1.89042005689299E-05
  9.25223952317963E-05  1.04258009812857E-04 -4.10946621430843E-06
  3.95012035820899E-05 -3.34615908496406E-05 -3.69638126307349E-05
 Gradient of E wrt nuclear positions in reduced coordinates (gred)
 -2.62867600408479E-01  1.65167215926172E-03  2.86870160592767E-03
  1.32493883755845E-03 -3.08724360384879E-04 -3.90746620708918E-04
  9.25222687833178E-04 -9.73151841496669E-05 -3.66729891689235E-04
  2.64667166415301E-01 -8.97525044929594E-04 -3.42078328995675E-03
 -1.16392705863713E-03  1.28869049773526E-04  7.42771015965183E-04
 -3.77352096112602E-04  1.92049539631293E-04  1.78644695376387E-04
 -1.75792550940413E-03 -9.85238192731500E-04  3.88344557252147E-05
 -7.50522868059708E-04  3.16212033529104E-04  3.49308029360445E-04
 Total energy (etotal) [Ha]= -2.94440342579891E+01

 Difference of energy with previous step (new-old):
           Absolute (Ha)=-9.05555E-08
           Relative     =-3.07551E-09

--- Iteration: (  3/500) Internal Cycle: (1/1)
--------------------------------------------------------------------------------

---SELF-CONSISTENT-FIELD CONVERGENCE--------------------------------------------

--- !BeginCycle
iteration_state: {dtset: 1, itime: 3, icycle: 1, }
solver: {iscf: 17, nstep: 50, nline: 4, wfoptalg: 114, }
tolerances: {toldff: 5.00E-07, }
...

     iter   Etot(hartree)      deltaE(h)  residm     nres2    diffor    maxfor
 ETOT  1  -29.444034339704    -2.944E+01 1.573E-11 6.772E-08 1.418E-04 6.044E-05
 ETOT  2  -29.444034339666     3.828E-11 5.055E-13 1.410E-08 3.153E-06 5.917E-05
 ETOT  3  -29.444034339663     2.945E-12 1.463E-13 2.986E-09 1.538E-06 5.985E-05
 ETOT  4  -29.444034339665    -2.071E-12 6.310E-14 1.778E-10 6.333E-07 5.962E-05
 ETOT  5  -29.444034339676    -1.094E-11 1.517E-14 5.595E-11 1.192E-07 5.967E-05
 ETOT  6  -29.444034339684    -8.633E-12 6.045E-15 2.499E-11 7.023E-08 5.969E-05

 At SCF step    6, forces are converged : 
  for the second time, max diff in force=  7.023E-08 < toldff=  5.000E-07

 Cartesian components of stress tensor (hartree/bohr^3)
  sigma(1 1)=  1.13131492E-04  sigma(3 2)= -1.56973705E-06
  sigma(2 2)=  1.52918224E-05  sigma(3 1)= -1.02147357E-06
  sigma(3 3)=  1.60810476E-05  sigma(2 1)= -6.85776876E-07


--- !ResultsGS
iteration_state: {dtset: 1, itime: 3, icycle: 1, }
comment   : Summary of ground state results
lattice_vectors:
- [ 19.0000000,   0.0000000,   0.0000000, ]
- [  0.0000000,   9.4500000,   0.0000000, ]
- [  0.0000000,   0.0000000,   9.4500000, ]
lattice_lengths: [  19.00000,    9.45000,    9.45000, ]
lattice_angles: [ 90.000,  90.000,  90.000, ] # degrees, (23, 13, 12)
lattice_volume:   1.6967475E+03
convergence: {deltae: -8.633E-12, res2:  2.499E-11, residm:  6.045E-15, diffor:  7.023E-08, }
etotal    :  -2.94440343E+01
entropy   :   0.00000000E+00
fermie    :  -1.62399598E-01
cartesian_stress_tensor: # hartree/bohr^3
- [  1.13131492E-04,  -6.85776876E-07,  -1.02147357E-06, ]
- [ -6.85776876E-07,   1.52918224E-05,  -1.56973705E-06, ]
- [ -1.02147357E-06,  -1.56973705E-06,   1.60810476E-05, ]
pressure_GPa:  -1.4172E+00
xred      :
- [  0.0000E+00,   0.0000E+00,   0.0000E+00,  O]
- [ -3.7403E-02,  -5.7159E-02,   1.7420E-01,  H]
- [ -3.8243E-02,   1.7350E-01,  -5.7056E-02,  H]
- [  3.9784E-01,   0.0000E+00,   0.0000E+00,  N]
- [  4.3226E-01,  -1.9962E-02,  -1.9091E-01,  H]
- [  4.2957E-01,  -1.5733E-01,   1.1338E-01,  H]
- [  4.3177E-01,   1.7475E-01,   8.0451E-02,  H]
- [  1.0225E-01,   4.5253E-03,   3.1199E-03,  H]
cartesian_forces: # hartree/bohr
- [  1.38100297E-02,  -1.74367423E-04,  -2.46113448E-04, ]
- [ -2.67049506E-05,   4.47710002E-05,  -2.08298822E-05, ]
- [ -2.61335626E-05,  -7.12700997E-06,   3.61229750E-05, ]
- [ -1.38395684E-02,   2.05780985E-04,   3.02379842E-04, ]
- [  1.92382241E-05,  -1.25289050E-06,   3.82457425E-05, ]
- [  1.94733022E-05,  -4.26034360E-06,  -2.07834580E-05, ]
- [  4.33134591E-05,  -3.54727634E-05,  -5.96947048E-05, ]
- [  3.52191852E-07,  -2.80715551E-05,  -2.93270662E-05, ]
force_length_stats: {min:   2.87977803E-05, max:   1.38444008E-02, mean:   3.49413494E-03, }
...

 Integrated electronic density in atomic spheres:
 ------------------------------------------------
 Atom  Sphere_radius  Integrated_density
    1        1.11262          3.35661500
    2        0.79977          0.31894984
    3        0.79977          0.31946655
    4        1.11029          2.25977353
    5        0.79977          0.35378414
    6        0.79977          0.34859913
    7        0.79977          0.35009563
    8        0.79977          0.28460324

 PAW TEST:
 ==== Compensation charge inside spheres ============
 The following values must be close to each other ...
 Compensation charge over spherical meshes =      1.223405298792567
 Compensation charge over fine fft grid    =      1.223420046475519

 ==== Results concerning PAW augmentation regions ====

 Total pseudopotential strength Dij (hartree):
 Atom #  1
   1.10697   1.76336  -0.00276  -0.00275  -0.00055  -0.00415  -0.00414  -0.00084
   1.76336   2.80845  -0.00419  -0.00418  -0.00084  -0.00632  -0.00630  -0.00128
  -0.00276  -0.00419  -0.48671   0.00421   0.00175  -0.55327   0.00564   0.00234
  -0.00275  -0.00418   0.00421  -0.48676   0.00173   0.00564  -0.55333   0.00232
  -0.00055  -0.00084   0.00175   0.00173  -0.48945   0.00234   0.00232  -0.55693
  -0.00415  -0.00632  -0.55327   0.00564   0.00234  -0.58744   0.00752   0.00312
  -0.00414  -0.00630   0.00564  -0.55333   0.00232   0.00752  -0.58752   0.00309
  -0.00084  -0.00128   0.00234   0.00232  -0.55693   0.00312   0.00309  -0.59233
 Atom #  8
  -0.04873


 Augmentation waves occupancies Rhoij:
 Atom #  1
   2.36979  -0.22586   0.12205   0.12170   0.01842  -0.07897  -0.07872  -0.01517
  -0.22586   0.03355  -0.07111  -0.07088  -0.01403   0.00193   0.00194   0.00052
   0.12205  -0.07111   1.08191  -0.15175  -0.06316  -0.02613   0.10292   0.04236
   0.12170  -0.07088  -0.15175   1.08365  -0.06245   0.10292  -0.02730   0.04193
   0.01842  -0.01403  -0.06316  -0.06245   1.17025   0.04232   0.04189  -0.09258
  -0.07897   0.00193  -0.02613   0.10292   0.04232   0.01548   0.00185   0.00139
  -0.07872   0.00194   0.10292  -0.02730   0.04189   0.00185   0.01545   0.00140
  -0.01517   0.00052   0.04236   0.04193  -0.09258   0.00139   0.00140   0.01296
 Atom #  8
   1.40420



---OUTPUT-----------------------------------------------------------------------

 Cartesian coordinates (xcart) [bohr]
  0.00000000000000E+00  0.00000000000000E+00  0.00000000000000E+00
 -7.10647903304431E-01 -5.40156962326285E-01  1.64615847226456E+00
 -7.26613641561218E-01  1.63957966161313E+00 -5.39177504754309E-01
  7.55890453154257E+00  0.00000000000000E+00  0.00000000000000E+00
  8.21301685759205E+00 -1.88638514997599E-01 -1.80413278696583E+00
  8.16180494095688E+00 -1.48673726543042E+00  1.07140373074621E+00
  8.20369602995536E+00  1.65136878670241E+00  7.60262088326817E-01
  1.94281507785434E+00  4.27636166811812E-02  2.94826708086032E-02
 Reduced coordinates (xred)
  0.00000000000000E+00  0.00000000000000E+00  0.00000000000000E+00
 -3.74025212265490E-02 -5.71594669128344E-02  1.74196663731700E-01
 -3.82428232400641E-02  1.73500493292394E-01 -5.70558206089216E-02
  3.97837080607504E-01  0.00000000000000E+00  0.00000000000000E+00
  4.32264045136424E-01 -1.99617476187935E-02 -1.90913522430247E-01
  4.29568681102994E-01 -1.57326694754542E-01  1.13376056163620E-01
  4.31773475260808E-01  1.74748019756868E-01  8.04510146377585E-02
  1.02253425150229E-01  4.52525044245304E-03  3.11985934482574E-03
 Cartesian forces (fcart) [Ha/bohr]; max,rms= 5.96947E-05 2.99999E-05 (free atoms)
  1.38100297468960E-02 -1.74367422584985E-04 -2.46113447864991E-04
 -2.67049505935877E-05  4.47710001748702E-05 -2.08298822034020E-05
 -2.61335625612052E-05 -7.12700997047623E-06  3.61229749526058E-05
 -1.38395684110407E-02  2.05780984967891E-04  3.02379841717767E-04
  1.92382241354336E-05 -1.25289050358132E-06  3.82457424502122E-05
  1.94733021640480E-05 -4.26034359504595E-06 -2.07834580191894E-05
  4.33134591475108E-05 -3.54727634016300E-05 -5.96947047952011E-05
  3.52191852492788E-07 -2.80715550870435E-05 -2.93270662378019E-05
 Gradient of E wrt nuclear positions in reduced coordinates (gred)
 -2.62390565191024E-01  1.64777214342810E-03  2.32577208232416E-03
  5.07394061278166E-04 -4.23085951652524E-04  1.96842386822149E-04
  4.96537688662899E-04  6.73502442210003E-05 -3.41362113302125E-04
  2.62951799809773E-01 -1.94463030794657E-03 -2.85748950423290E-03
 -3.65526258573239E-04  1.18398152588434E-05 -3.61422266154506E-04
 -3.69992741116913E-04  4.02602469731842E-05  1.96403678281340E-04
 -8.22955723802705E-04  3.35217614145404E-04  5.64114960314650E-04
 -6.69164519736297E-06  2.65276195572561E-04  2.77140775947228E-04
 Total energy (etotal) [Ha]= -2.94440343396844E+01

 Difference of energy with previous step (new-old):
           Absolute (Ha)=-8.16954E-08
           Relative     =-2.77460E-09

--- Iteration: (  4/500) Internal Cycle: (1/1)
--------------------------------------------------------------------------------

---SELF-CONSISTENT-FIELD CONVERGENCE--------------------------------------------

--- !BeginCycle
iteration_state: {dtset: 1, itime: 4, icycle: 1, }
solver: {iscf: 17, nstep: 50, nline: 4, wfoptalg: 114, }
tolerances: {toldff: 5.00E-07, }
...

     iter   Etot(hartree)      deltaE(h)  residm     nres2    diffor    maxfor
 ETOT  1  -29.444034359891    -2.944E+01 1.591E-13 8.984E-08 2.019E-05 6.359E-05
 ETOT  2  -29.444034359809     8.288E-11 7.535E-15 2.433E-08 4.776E-06 6.150E-05
 ETOT  3  -29.444034359775     3.307E-11 3.647E-14 2.507E-09 1.977E-06 6.235E-05
 ETOT  4  -29.444034359777    -1.098E-12 3.211E-14 1.652E-10 5.109E-07 6.216E-05
 ETOT  5  -29.444034359782    -5.208E-12 6.741E-15 6.930E-11 6.769E-08 6.220E-05
 ETOT  6  -29.444034359787    -4.867E-12 3.409E-15 2.944E-11 8.546E-08 6.224E-05

 At SCF step    6, forces are converged : 
  for the second time, max diff in force=  8.546E-08 < toldff=  5.000E-07

 Cartesian components of stress tensor (hartree/bohr^3)
  sigma(1 1)=  1.13157068E-04  sigma(3 2)= -1.56073346E-06
  sigma(2 2)=  1.53111562E-05  sigma(3 1)= -1.03333601E-06
  sigma(3 3)=  1.60977256E-05  sigma(2 1)= -6.84214964E-07


--- !ResultsGS
iteration_state: {dtset: 1, itime: 4, icycle: 1, }
comment   : Summary of ground state results
lattice_vectors:
- [ 19.0000000,   0.0000000,   0.0000000, ]
- [  0.0000000,   9.4500000,   0.0000000, ]
- [  0.0000000,   0.0000000,   9.4500000, ]
lattice_lengths: [  19.00000,    9.45000,    9.45000, ]
lattice_angles: [ 90.000,  90.000,  90.000, ] # degrees, (23, 13, 12)
lattice_volume:   1.6967475E+03
convergence: {deltae: -4.867E-12, res2:  2.944E-11, residm:  3.409E-15, diffor:  8.546E-08, }
etotal    :  -2.94440344E+01
entropy   :   0.00000000E+00
fermie    :  -1.62401902E-01
cartesian_stress_tensor: # hartree/bohr^3
- [  1.13157068E-04,  -6.84214964E-07,  -1.03333601E-06, ]
- [ -6.84214964E-07,   1.53111562E-05,  -1.56073346E-06, ]
- [ -1.03333601E-06,  -1.56073346E-06,   1.60977256E-05, ]
pressure_GPa:  -1.4178E+00
xred      :
- [  0.0000E+00,   0.0000E+00,   0.0000E+00,  O]
- [ -3.7407E-02,  -5.7152E-02,   1.7420E-01,  H]
- [ -3.8246E-02,   1.7350E-01,  -5.7049E-02,  H]
- [  3.9784E-01,   0.0000E+00,   0.0000E+00,  N]
- [  4.3227E-01,  -1.9963E-02,  -1.9092E-01,  H]
- [  4.2957E-01,  -1.5733E-01,   1.1337E-01,  H]
- [  4.3178E-01,   1.7475E-01,   8.0444E-02,  H]
- [  1.0225E-01,   4.5197E-03,   3.1139E-03,  H]
cartesian_forces: # hartree/bohr
- [  1.38024111E-02,  -1.72484334E-04,  -2.39093726E-04, ]
- [ -1.67590157E-05,   4.12165985E-05,  -2.58944379E-05, ]
- [ -1.86469302E-05,  -7.74343448E-06,   3.10416565E-05, ]
- [ -1.38254164E-02,   2.19051489E-04,   2.90181594E-04, ]
- [  1.19262815E-05,  -1.10122092E-06,   5.08218239E-05, ]
- [  1.90201475E-05,  -8.76727243E-07,  -1.87539968E-05, ]
- [  3.62528549E-05,  -5.25052793E-05,  -6.22365313E-05, ]
- [ -8.78799119E-06,  -2.55570916E-05,  -2.60663818E-05, ]
force_length_stats: {min:   2.67254010E-05, max:   1.38301963E-02, mean:   3.49123565E-03, }
...

 Integrated electronic density in atomic spheres:
 ------------------------------------------------
 Atom  Sphere_radius  Integrated_density
    1        1.11262          3.35660701
    2        0.79977          0.31895011
    3        0.79977          0.31946766
    4        1.11029          2.25975592
    5        0.79977          0.35378478
    6        0.79977          0.34859912
    7        0.79977          0.35009444
    8        0.79977          0.28460053

 PAW TEST:
 ==== Compensation charge inside spheres ============
 The following values must be close to each other ...
 Compensation charge over spherical meshes =      1.223393254954536
 Compensation charge over fine fft grid    =      1.223407983214622

 ==== Results concerning PAW augmentation regions ====

 Total pseudopotential strength Dij (hartree):
 Atom #  1
   1.10697   1.76335  -0.00276  -0.00275  -0.00055  -0.00415  -0.00414  -0.00084
   1.76335   2.80845  -0.00419  -0.00418  -0.00084  -0.00632  -0.00630  -0.00128
  -0.00276  -0.00419  -0.48671   0.00421   0.00175  -0.55326   0.00563   0.00234
  -0.00275  -0.00418   0.00421  -0.48676   0.00173   0.00563  -0.55333   0.00232
  -0.00055  -0.00084   0.00175   0.00173  -0.48945   0.00234   0.00232  -0.55693
  -0.00415  -0.00632  -0.55326   0.00563   0.00234  -0.58744   0.00752   0.00312
  -0.00414  -0.00630   0.00563  -0.55333   0.00232   0.00752  -0.58752   0.00309
  -0.00084  -0.00128   0.00234   0.00232  -0.55693   0.00312   0.00309  -0.59232
 Atom #  8
  -0.04873


 Augmentation waves occupancies Rhoij:
 Atom #  1
   2.36978  -0.22586   0.12205   0.12170   0.01841  -0.07897  -0.07872  -0.01516
  -0.22586   0.03355  -0.07111  -0.07088  -0.01403   0.00193   0.00194   0.00052
   0.12205  -0.07111   1.08190  -0.15173  -0.06317  -0.02613   0.10291   0.04237
   0.12170  -0.07088  -0.15173   1.08363  -0.06246   0.10291  -0.02729   0.04194
   0.01841  -0.01403  -0.06317  -0.06246   1.17025   0.04233   0.04190  -0.09258
  -0.07897   0.00193  -0.02613   0.10291   0.04233   0.01548   0.00185   0.00138
  -0.07872   0.00194   0.10291  -0.02729   0.04190   0.00185   0.01545   0.00140
  -0.01516   0.00052   0.04237   0.04194  -0.09258   0.00138   0.00140   0.01296
 Atom #  8
   1.40414



---OUTPUT-----------------------------------------------------------------------

 Cartesian coordinates (xcart) [bohr]
  0.00000000000000E+00  0.00000000000000E+00  0.00000000000000E+00
 -7.10724413039687E-01 -5.40088348109518E-01  1.64616679060874E+00
 -7.26674541873246E-01  1.63957980359634E+00 -5.39113370165529E-01
  7.55890453154257E+00  0.00000000000000E+00  0.00000000000000E+00
  8.21307985922529E+00 -1.88649634534339E-01 -1.80414938504102E+00
  8.16183904988023E+00 -1.48675591866729E+00  1.07136921616698E+00
  8.20380610079571E+00  1.65140621224867E+00  7.60198247901224E-01
  1.94284259282805E+00  4.27112294735650E-02  2.94265382149974E-02
 Reduced coordinates (xred)
  0.00000000000000E+00  0.00000000000000E+00  0.00000000000000E+00
 -3.74065480547204E-02 -5.71522061491554E-02  1.74197543979761E-01
 -3.82460285196446E-02  1.73500508317073E-01 -5.70490338799501E-02
  3.97837080607504E-01  0.00000000000000E+00  0.00000000000000E+00
  4.32267361011857E-01 -1.99629242893481E-02 -1.90915278840320E-01
  4.29570476309486E-01 -1.57328668642041E-01  1.13372403827193E-01
  4.31779268462932E-01  1.74751980132134E-01  8.04442590371666E-02
  1.02254873306739E-01  4.51970682259947E-03  3.11391938783042E-03
 Cartesian forces (fcart) [Ha/bohr]; max,rms= 6.22365E-05 3.05653E-05 (free atoms)
  1.38024110871471E-02 -1.72484334042849E-04 -2.39093726212408E-04
 -1.67590156905011E-05  4.12165984639834E-05 -2.58944379472386E-05
 -1.86469302283685E-05 -7.74343447784855E-06  3.10416564768846E-05
 -1.38254164340112E-02  2.19051489100577E-04  2.90181593705361E-04
  1.19262815411157E-05 -1.10122091724756E-06  5.08218238962207E-05
  1.90201474871234E-05 -8.76727243066629E-07 -1.87539968444661E-05
  3.62528549445027E-05 -5.25052793107079E-05 -6.22365312517537E-05
 -8.78799118980729E-06 -2.55570915728408E-05 -2.60663818226001E-05
 Gradient of E wrt nuclear positions in reduced coordinates (gred)
 -2.62245810655795E-01  1.62997695670492E-03  2.25943571270726E-03
  3.18421298119522E-04 -3.89496855484643E-04  2.44702438601405E-04
  3.54291674339001E-04  7.31754558156688E-05 -2.93343653706560E-04
  2.62682912246212E-01 -2.07003657200045E-03 -2.74221606051566E-03
 -2.26599349281199E-04  1.04065376679895E-05 -4.80266235819286E-04
 -3.61382802255345E-04  8.28507244697964E-06  1.77225270180205E-04
 -6.88804243945552E-04  4.96174889486189E-04  5.88135220329072E-04
  1.66971832606338E-04  2.41514515363346E-04  2.46327308223571E-04
 Total energy (etotal) [Ha]= -2.94440343597866E+01

 Difference of energy with previous step (new-old):
           Absolute (Ha)=-2.01022E-08
           Relative     =-6.82725E-10

--- Iteration: (  5/500) Internal Cycle: (1/1)
--------------------------------------------------------------------------------

---SELF-CONSISTENT-FIELD CONVERGENCE--------------------------------------------

--- !BeginCycle
iteration_state: {dtset: 1, itime: 5, icycle: 1, }
solver: {iscf: 17, nstep: 50, nline: 4, wfoptalg: 114, }
tolerances: {toldff: 5.00E-07, }
...

     iter   Etot(hartree)      deltaE(h)  residm     nres2    diffor    maxfor
 ETOT  1  -29.444034400183    -2.944E+01 1.469E-12 1.185E-06 3.739E-05 8.644E-05
 ETOT  2  -29.444034398191     1.992E-09 3.462E-14 4.509E-07 2.191E-05 6.533E-05
 ETOT  3  -29.444034397241     9.499E-10 1.055E-13 1.083E-08 7.800E-06 7.235E-05
 ETOT  4  -29.444034397232     8.985E-12 1.376E-13 1.150E-09 9.067E-07 7.144E-05
 ETOT  5  -29.444034397234    -2.540E-12 4.756E-14 2.695E-10 1.541E-07 7.157E-05
 ETOT  6  -29.444034397237    -2.725E-12 6.856E-14 1.390E-10 1.079E-07 7.164E-05

 At SCF step    6, forces are converged : 
  for the second time, max diff in force=  1.079E-07 < toldff=  5.000E-07

 Cartesian components of stress tensor (hartree/bohr^3)
  sigma(1 1)=  1.13234356E-04  sigma(3 2)= -1.53518581E-06
  sigma(2 2)=  1.53189927E-05  sigma(3 1)= -1.07301261E-06
  sigma(3 3)=  1.60655278E-05  sigma(2 1)= -6.97411403E-07


--- !ResultsGS
iteration_state: {dtset: 1, itime: 5, icycle: 1, }
comment   : Summary of ground state results
lattice_vectors:
- [ 19.0000000,   0.0000000,   0.0000000, ]
- [  0.0000000,   9.4500000,   0.0000000, ]
- [  0.0000000,   0.0000000,   9.4500000, ]
lattice_lengths: [  19.00000,    9.45000,    9.45000, ]
lattice_angles: [ 90.000,  90.000,  90.000, ] # degrees, (23, 13, 12)
lattice_volume:   1.6967475E+03
convergence: {deltae: -2.725E-12, res2:  1.390E-10, residm:  6.856E-14, diffor:  1.079E-07, }
etotal    :  -2.94440344E+01
entropy   :   0.00000000E+00
fermie    :  -1.62415239E-01
cartesian_stress_tensor: # hartree/bohr^3
- [  1.13234356E-04,  -6.97411403E-07,  -1.07301261E-06, ]
- [ -6.97411403E-07,   1.53189927E-05,  -1.53518581E-06, ]
- [ -1.07301261E-06,  -1.53518581E-06,   1.60655278E-05, ]
pressure_GPa:  -1.4183E+00
xred      :
- [  0.0000E+00,   0.0000E+00,   0.0000E+00,  O]
- [ -3.7425E-02,  -5.7112E-02,   1.7420E-01,  H]
- [ -3.8262E-02,   1.7350E-01,  -5.7013E-02,  H]
- [  3.9784E-01,   0.0000E+00,   0.0000E+00,  N]
- [  4.3228E-01,  -1.9969E-02,  -1.9091E-01,  H]
- [  4.2958E-01,  -1.5734E-01,   1.1335E-01,  H]
- [  4.3181E-01,   1.7476E-01,   8.0400E-02,  H]
- [  1.0226E-01,   4.4899E-03,   3.0824E-03,  H]
cartesian_forces: # hartree/bohr
- [  1.37635032E-02,  -1.60394588E-04,  -2.29526749E-04, ]
- [  1.99174538E-05,   1.15551177E-05,  -2.05580720E-05, ]
- [  1.52306456E-05,  -1.90742380E-06,   8.46773919E-07, ]
- [ -1.37906046E-02,   2.33043953E-04,   2.49767871E-04, ]
- [ -8.25782228E-06,  -8.07000144E-06,   5.63265293E-05, ]
- [  1.61706410E-05,   1.01300101E-05,  -4.22535342E-06, ]
- [  2.22474755E-05,  -7.16367954E-05,  -4.26859402E-05, ]
- [ -3.82069565E-05,  -1.27202713E-05,  -9.94506019E-06, ]
force_length_stats: {min:   1.53729586E-05, max:   1.37948349E-02, mean:   3.47653184E-03, }
...

 Integrated electronic density in atomic spheres:
 ------------------------------------------------
 Atom  Sphere_radius  Integrated_density
    1        1.11262          3.35659421
    2        0.79977          0.31895353
    3        0.79977          0.31992023
    4        1.11029          2.25972951
    5        0.79977          0.35379300
    6        0.79977          0.34859973
    7        0.79977          0.35009420
    8        0.79977          0.28486406

 PAW TEST:
 ==== Compensation charge inside spheres ============
 The following values must be close to each other ...
 Compensation charge over spherical meshes =      1.223368339476611
 Compensation charge over fine fft grid    =      1.223383052163372

 ==== Results concerning PAW augmentation regions ====

 Total pseudopotential strength Dij (hartree):
 Atom #  1
   1.10697   1.76335  -0.00276  -0.00275  -0.00055  -0.00415  -0.00414  -0.00083
   1.76335   2.80845  -0.00419  -0.00418  -0.00084  -0.00632  -0.00630  -0.00127
  -0.00276  -0.00419  -0.48671   0.00421   0.00175  -0.55326   0.00563   0.00234
  -0.00275  -0.00418   0.00421  -0.48676   0.00173   0.00563  -0.55333   0.00232
  -0.00055  -0.00084   0.00175   0.00173  -0.48945   0.00234   0.00232  -0.55693
  -0.00415  -0.00632  -0.55326   0.00563   0.00234  -0.58743   0.00752   0.00313
  -0.00414  -0.00630   0.00563  -0.55333   0.00232   0.00752  -0.58752   0.00310
  -0.00083  -0.00127   0.00234   0.00232  -0.55693   0.00313   0.00310  -0.59232
 Atom #  8
  -0.04873


 Augmentation waves occupancies Rhoij:
 Atom #  1
   2.36975  -0.22585   0.12206   0.12170   0.01832  -0.07897  -0.07872  -0.01511
  -0.22585   0.03354  -0.07111  -0.07088  -0.01399   0.00193   0.00194   0.00050
   0.12206  -0.07111   1.08185  -0.15163  -0.06326  -0.02610   0.10285   0.04242
   0.12170  -0.07088  -0.15163   1.08359  -0.06255   0.10285  -0.02727   0.04199
   0.01832  -0.01399  -0.06326  -0.06255   1.17028   0.04238   0.04195  -0.09260
  -0.07897   0.00193  -0.02610   0.10285   0.04238   0.01547   0.00186   0.00138
  -0.07872   0.00194   0.10285  -0.02727   0.04195   0.00186   0.01544   0.00140
  -0.01511   0.00050   0.04242   0.04199  -0.09260   0.00138   0.00140   0.01297
 Atom #  8
   1.40395



---OUTPUT-----------------------------------------------------------------------

 Cartesian coordinates (xcart) [bohr]
  0.00000000000000E+00  0.00000000000000E+00  0.00000000000000E+00
 -7.11080744752825E-01 -5.39706781976780E-01  1.64614526887113E+00
 -7.26968589775256E-01  1.63956517035683E+00 -5.38775170690317E-01
  7.55890453154257E+00  0.00000000000000E+00  0.00000000000000E+00
  8.21337274610582E+00 -1.88703232726144E-01 -1.80409968882071E+00
  8.16203046222550E+00 -1.48683419987441E+00  1.07118145132420E+00
  8.20436255490799E+00  1.65143710521793E+00  7.59783408489979E-01
  1.94292697343988E+00  4.24294209206442E-02  2.91286253390081E-02
 Reduced coordinates (xred)
  0.00000000000000E+00  0.00000000000000E+00  0.00000000000000E+00
 -3.74253023554118E-02 -5.71118287806116E-02  1.74195266547210E-01
 -3.82615047250135E-02  1.73498959826120E-01 -5.70132455756949E-02
  3.97837080607504E-01  0.00000000000000E+00  0.00000000000000E+00
  4.32282776110833E-01 -1.99685960556766E-02 -1.90910019981027E-01
  4.29580550643447E-01 -1.57336952367662E-01  1.13352534531662E-01
  4.31808555521473E-01  1.74755249229411E-01  8.04003606867703E-02
  1.02259314391573E-01  4.48988581170838E-03  3.08239421576805E-03
 Cartesian forces (fcart) [Ha/bohr]; max,rms= 7.16368E-05 2.79349E-05 (free atoms)
  1.37635031885550E-02 -1.60394588442835E-04 -2.29526748657444E-04
  1.99174537709751E-05  1.15551177470951E-05 -2.05580719909169E-05
  1.52306455593636E-05 -1.90742379716491E-06  8.46773918507926E-07
 -1.37906046255860E-02  2.33043952595025E-04  2.49767871295155E-04
 -8.25782227622798E-06 -8.07000144227397E-06  5.63265292739913E-05
  1.61706409533508E-05  1.01300101004959E-05 -4.22535341916794E-06
  2.22474755465896E-05 -7.16367954255519E-05 -4.26859402295326E-05
 -3.82069565231220E-05 -1.27202713347900E-05 -9.94506019059277E-06
 Gradient of E wrt nuclear positions in reduced coordinates (gred)
 -2.61506560582546E-01  1.51572886078479E-03  2.16902777481285E-03
 -3.78431621648527E-04 -1.09195862710049E-04  1.94273780314165E-04
 -2.89382265627909E-04  1.80251548832084E-05 -8.00201352989990E-06
  2.62021487886133E-01 -2.20226535202298E-03 -2.36030638373921E-03
  1.56898623248332E-04  7.62615136294890E-05 -5.32285701639218E-04
 -3.07242178113666E-04 -9.57285954496859E-05  3.99295898111370E-05
 -4.22702035385203E-04  6.76967716771465E-04  4.03382135169083E-04
  7.25932173939317E-04  1.20206564113765E-04  9.39808188011016E-05
 Total energy (etotal) [Ha]= -2.94440343972370E+01

 Difference of energy with previous step (new-old):
           Absolute (Ha)=-3.74504E-08
           Relative     =-1.27192E-09

--- Iteration: (  6/500) Internal Cycle: (1/1)
--------------------------------------------------------------------------------

---SELF-CONSISTENT-FIELD CONVERGENCE--------------------------------------------

--- !BeginCycle
iteration_state: {dtset: 1, itime: 6, icycle: 1, }
solver: {iscf: 17, nstep: 50, nline: 4, wfoptalg: 114, }
tolerances: {toldff: 5.00E-07, }
...

     iter   Etot(hartree)      deltaE(h)  residm     nres2    diffor    maxfor
 ETOT  1  -29.444034420800    -2.944E+01 1.151E-12 3.855E-07 2.217E-05 4.947E-05
 ETOT  2  -29.444034420197     6.029E-10 2.364E-14 1.379E-07 1.188E-05 3.790E-05
 ETOT  3  -29.444034419913     2.845E-10 1.760E-14 3.937E-09 4.361E-06 4.183E-05
 ETOT  4  -29.444034419915    -2.085E-12 3.275E-14 4.235E-10 5.764E-07 4.125E-05
 ETOT  5  -29.444034419916    -1.585E-12 1.148E-14 9.407E-11 1.034E-07 4.135E-05
 ETOT  6  -29.444034419920    -3.254E-12 3.146E-14 4.637E-11 7.295E-08 4.139E-05

 At SCF step    6, forces are converged : 
  for the second time, max diff in force=  7.295E-08 < toldff=  5.000E-07

 Cartesian components of stress tensor (hartree/bohr^3)
  sigma(1 1)=  1.13235239E-04  sigma(3 2)= -1.53762199E-06
  sigma(2 2)=  1.52783337E-05  sigma(3 1)= -1.07705594E-06
  sigma(3 3)=  1.59957179E-05  sigma(2 1)= -7.14284697E-07


--- !ResultsGS
iteration_state: {dtset: 1, itime: 6, icycle: 1, }
comment   : Summary of ground state results
lattice_vectors:
- [ 19.0000000,   0.0000000,   0.0000000, ]
- [  0.0000000,   9.4500000,   0.0000000, ]
- [  0.0000000,   0.0000000,   9.4500000, ]
lattice_lengths: [  19.00000,    9.45000,    9.45000, ]
lattice_angles: [ 90.000,  90.000,  90.000, ] # degrees, (23, 13, 12)
lattice_volume:   1.6967475E+03
convergence: {deltae: -3.254E-12, res2:  4.637E-11, residm:  3.146E-14, diffor:  7.295E-08, }
etotal    :  -2.94440344E+01
entropy   :   0.00000000E+00
fermie    :  -1.62420330E-01
cartesian_stress_tensor: # hartree/bohr^3
- [  1.13235239E-04,  -7.14284697E-07,  -1.07705594E-06, ]
- [ -7.14284697E-07,   1.52783337E-05,  -1.53762199E-06, ]
- [ -1.07705594E-06,  -1.53762199E-06,   1.59957179E-05, ]
pressure_GPa:  -1.4172E+00
xred      :
- [  0.0000E+00,   0.0000E+00,   0.0000E+00,  O]
- [ -3.7431E-02,  -5.7094E-02,   1.7419E-01,  H]
- [ -3.8267E-02,   1.7350E-01,  -5.6999E-02,  H]
- [  3.9784E-01,   0.0000E+00,   0.0000E+00,  N]
- [  4.3229E-01,  -1.9972E-02,  -1.9090E-01,  H]
- [  4.2959E-01,  -1.5734E-01,   1.1334E-01,  H]
- [  4.3182E-01,   1.7475E-01,   8.0377E-02,  H]
- [  1.0226E-01,   4.4766E-03,   3.0688E-03,  H]
cartesian_forces: # hartree/bohr
- [  1.37426902E-02,  -1.54329855E-04,  -2.39490305E-04, ]
- [  2.65136188E-05,  -5.56401355E-06,  -2.61966107E-06, ]
- [  2.56685159E-05,   4.71315767E-06,  -1.26942761E-05, ]
- [ -1.37968994E-02,   2.08472697E-04,   2.46195646E-04, ]
- [ -6.95435782E-06,  -1.49657412E-05,   2.62372465E-05, ]
- [  1.43183252E-05,   1.07987246E-05,   3.63552181E-06, ]
- [  2.85120970E-05,  -4.13878307E-05,  -1.73070854E-05, ]
- [ -3.38489550E-05,  -7.73713963E-06,  -3.95708651E-06, ]
force_length_stats: {min:   1.82987406E-05, max:   1.38006705E-02, mean:   3.46749354E-03, }
...

 Integrated electronic density in atomic spheres:
 ------------------------------------------------
 Atom  Sphere_radius  Integrated_density
    1        1.11262          3.35660700
    2        0.79977          0.31895569
    3        0.79977          0.31992224
    4        1.11029          2.25975359
    5        0.79977          0.35379886
    6        0.79977          0.34953790
    7        0.79977          0.35009705
    8        0.79977          0.28486079

 PAW TEST:
 ==== Compensation charge inside spheres ============
 The following values must be close to each other ...
 Compensation charge over spherical meshes =      1.223379225091481
 Compensation charge over fine fft grid    =      1.223393941242059

 ==== Results concerning PAW augmentation regions ====

 Total pseudopotential strength Dij (hartree):
 Atom #  1
   1.10697   1.76335  -0.00276  -0.00275  -0.00055  -0.00415  -0.00414  -0.00083
   1.76335   2.80845  -0.00419  -0.00418  -0.00084  -0.00632  -0.00630  -0.00127
  -0.00276  -0.00419  -0.48671   0.00421   0.00175  -0.55326   0.00563   0.00234
  -0.00275  -0.00418   0.00421  -0.48676   0.00173   0.00563  -0.55333   0.00232
  -0.00055  -0.00084   0.00175   0.00173  -0.48945   0.00234   0.00232  -0.55693
  -0.00415  -0.00632  -0.55326   0.00563   0.00234  -0.58744   0.00752   0.00313
  -0.00414  -0.00630   0.00563  -0.55333   0.00232   0.00752  -0.58752   0.00310
  -0.00083  -0.00127   0.00234   0.00232  -0.55693   0.00313   0.00310  -0.59233
 Atom #  8
  -0.04873


 Augmentation waves occupancies Rhoij:
 Atom #  1
   2.36977  -0.22585   0.12207   0.12172   0.01830  -0.07898  -0.07873  -0.01510
  -0.22585   0.03354  -0.07111  -0.07088  -0.01398   0.00193   0.00194   0.00050
   0.12207  -0.07111   1.08185  -0.15160  -0.06329  -0.02610   0.10284   0.04244
   0.12172  -0.07088  -0.15160   1.08360  -0.06259   0.10283  -0.02727   0.04202
   0.01830  -0.01398  -0.06329  -0.06259   1.17033   0.04240   0.04198  -0.09262
  -0.07898   0.00193  -0.02610   0.10283   0.04240   0.01547   0.00186   0.00138
  -0.07873   0.00194   0.10284  -0.02727   0.04198   0.00186   0.01544   0.00139
  -0.01510   0.00050   0.04244   0.04202  -0.09262   0.00138   0.00139   0.01298
 Atom #  8
   1.40396



---OUTPUT-----------------------------------------------------------------------

 Cartesian coordinates (xcart) [bohr]
  0.00000000000000E+00  0.00000000000000E+00  0.00000000000000E+00
 -7.11193309664414E-01 -5.39542527842261E-01  1.64610788953677E+00
 -7.27063671155014E-01  1.63955592312750E+00 -5.38641864038650E-01
  7.55890453154257E+00  0.00000000000000E+00  0.00000000000000E+00
  8.21347479345053E+00 -1.88733372930789E-01 -1.80400454992130E+00
  8.16212513688819E+00 -1.48685156144008E+00  1.07110274132758E+00
  8.20460466942675E+00  1.65135345110168E+00  7.59565622734776E-01
  1.94291127448963E+00  4.23039091249553E-02  2.90003188934004E-02
 Reduced coordinates (xred)
  0.00000000000000E+00  0.00000000000000E+00  0.00000000000000E+00
 -3.74312268244429E-02 -5.70944473907154E-02  1.74191311062092E-01
 -3.82665090081587E-02  1.73497981283333E-01 -5.69991390517090E-02
  3.97837080607504E-01  0.00000000000000E+00  0.00000000000000E+00
  4.32288147023712E-01 -1.99717854953216E-02 -1.90899952372624E-01
  4.29585533520431E-01 -1.57338789570379E-01  1.13344205431490E-01
  4.31821298390882E-01  1.74746396941977E-01  8.03773145751086E-02
  1.02258488131033E-01  4.47660414020691E-03  3.06881681411644E-03
 Cartesian forces (fcart) [Ha/bohr]; max,rms= 4.13878E-05 1.96148E-05 (free atoms)
  1.37426901843619E-02 -1.54329854562563E-04 -2.39490305084538E-04
  2.65136188388570E-05 -5.56401355309544E-06 -2.61966107022850E-06
  2.56685158737437E-05  4.71315766583221E-06 -1.26942761208822E-05
 -1.37968994284693E-02  2.08472697324255E-04  2.46195645881292E-04
 -6.95435781684544E-06 -1.49657411637295E-05  2.62372465122407E-05
  1.43183251916090E-05  1.07987246191415E-05  3.63552180645378E-06
  2.85120969987558E-05 -4.13878306981826E-05 -1.73070854135511E-05
 -3.38489549787077E-05 -7.73713963165872E-06 -3.95708651078650E-06
 Gradient of E wrt nuclear positions in reduced coordinates (gred)
 -2.61111113502875E-01  1.45841712561622E-03  2.26318338304888E-03
 -5.03758757938283E-04  5.25799280767519E-05  2.47557971136593E-05
 -4.87701801601131E-04 -4.45393399421144E-05  1.19960909342336E-04
  2.62141089140916E-01 -1.97006698971421E-03 -2.32654885357821E-03
  1.32132798520063E-04  1.41426253997244E-04 -2.47941979540675E-04
 -2.72048178640571E-04 -1.02047947650887E-04 -3.43556810709882E-05
 -5.41729842976361E-04  3.91115000097826E-04  1.63551957158058E-04
  6.43130144595447E-04  7.31159695191749E-05  3.73944675269324E-05
 Total energy (etotal) [Ha]= -2.94440344199196E+01

 Difference of energy with previous step (new-old):
           Absolute (Ha)=-2.26827E-08
           Relative     =-7.70365E-10

 At Broyd/MD step   6, gradients are converged : 
  max grad (force/stress) = 4.1388E-05 < tolmxf= 5.0000E-05 ha/bohr (free atoms)

================================================================================

 ----iterations are completed or convergence reached----

 Mean square residual over all n,k,spin=   32.450E-16; max=  31.464E-15
 reduced coordinates (array xred) for    8 atoms
       0.000000000000      0.000000000000      0.000000000000
      -0.037431226824     -0.057094447391      0.174191311062
      -0.038266509008      0.173497981283     -0.056999139052
       0.397837080608      0.000000000000      0.000000000000
       0.432288147024     -0.019971785495     -0.190899952373
       0.429585533520     -0.157338789570      0.113344205431
       0.431821298391      0.174746396942      0.080377314575
       0.102258488131      0.004476604140      0.003068816814
 rms dE/dt=  7.5530E-02; max dE/dt=  2.6196E-01; dE/dt below (all hartree)
    1      -0.261292397093      0.001453489307      0.002269497509
    2      -0.000685042348      0.000047652110      0.000031069923
    3      -0.000668985392     -0.000049467158      0.000126275035
    4       0.261959805551     -0.001974994808     -0.002320234728
    5      -0.000049150792      0.000136498436     -0.000241627853
    6      -0.000453331769     -0.000106975766     -0.000028041555
    7      -0.000723013433      0.000386187182      0.000169866083
    8       0.000461846554      0.000068188151      0.000043708594

 cartesian coordinates (angstrom) at end:
    1      0.00000000000000     0.00000000000000     0.00000000000000
    2     -0.37634729037610    -0.28551360879916     0.87108277802304
    3     -0.38474552396901     0.86761562672781    -0.28503699804169
    4      4.00000000000000     0.00000000000000     0.00000000000000
    5      4.34638366402248    -0.09987339945529    -0.95463809201101
    6      4.31921059610076    -0.78680795887054     0.56680315876883
    7      4.34168979655173     0.87385860964945     0.40194481597971
    8      1.02814436477246     0.02238626454319     0.01534630780023

 cartesian forces (hartree/bohr) at end:
    1      0.01374269018436    -0.00015432985456    -0.00023949030508
    2      0.00002651361884    -0.00000556401355    -0.00000261966107
    3      0.00002566851587     0.00000471315767    -0.00001269427612
    4     -0.01379689942847     0.00020847269732     0.00024619564588
    5     -0.00000695435782    -0.00001496574116     0.00002623724651
    6      0.00001431832519     0.00001079872462     0.00000363552181
    7      0.00002851209700    -0.00004138783070    -0.00001730708541
    8     -0.00003384895498    -0.00000773713963    -0.00000395708651
 frms,max,avg= 1.9614760E-05 4.1387831E-05   9.541E-06  5.215E-07 -6.682E-07 h/b

 cartesian forces (eV/Angstrom) at end:
    1      0.70667748309142    -0.00793595953376    -0.01231508560198
    2      0.00136338498339    -0.00028611305653    -0.00013470837710
    3      0.00131992804531     0.00024236029133    -0.00065276586887
    4     -0.70946503426751     0.01072009621566     0.01265988806016
    5     -0.00035760742712    -0.00076956928784     0.00134917334814
    6      0.00073627782281     0.00055529269976     0.00018694603207
    7      0.00146615085361    -0.00212824764555    -0.00088996603981
    8     -0.00174058310191    -0.00039785968307    -0.00020348155261
 frms,max,avg= 1.0086314E-03 2.1282476E-03   4.906E-04  2.681E-05 -3.436E-05 e/A
 length scales= 19.000000000000  9.450000000000  9.450000000000 bohr
              = 10.054366963210  5.000724621175  5.000724621175 angstroms
 prteigrs : about to open file timages_01_MPI1o_EIG
 Fermi (or HOMO) energy (hartree) =  -0.16242   Average Vxc (hartree)=  -0.11407
 Eigenvalues (hartree) for nkpt=   1  k points:
 kpt#   1, nband= 10, wtk=  1.00000, kpt=  0.0000  0.0000  0.0000 (reduced coord)
  -1.08810   -0.69103   -0.62011   -0.60765   -0.43098   -0.33798   -0.33771   -0.16242
  -0.09459    0.01126

 Calculation was performed for a charged system with PBC
 You may consider including the monopole correction to the total energy
 The correction is to be divided by the dielectric constant

--- !EnergyTerms
iteration_state     : {dtset: 1, itime: 6, icycle: 1, }
comment             : Components of total free energy in Hartree
kinetic             :  1.50377614376053E+01
hartree             :  2.21960006199309E+01
xc                  : -7.69754074247627E+00
Ewald energy        : -1.12767496950090E+00
psp_core            :  6.46659751152509E-02
local_psp           : -6.50122976849952E+01
spherical_terms     :  7.09504999700345E+00
total_energy        : -2.94440353673176E+01
total_energy_eV     : -8.01212948767495E+02
monopole_correction :  9.49609608068055E-02
monopole_correction_eV:  2.58401915622840E+00
...


--- !EnergyTermsDC
iteration_state     : {dtset: 1, itime: 6, icycle: 1, }
comment             : '"Double-counting" decomposition of free energy'
band_energy         : -8.55196898557822E+00
Ewald energy        : -1.12767496950090E+00
psp_core            :  6.46659751152509E-02
xc_dc               : -1.98143007475846E+01
spherical_terms     : -1.47556923711685E-02
total_energy_dc     : -2.94440344199196E+01
total_energy_dc_eV  : -8.01212922987486E+02
...

 rms coord change=  4.1158E-05   atom, delta coord (reduced):
     1        0.000000000000      0.000000000000      0.000000000000
     2       -0.000044487174      0.000077267042      0.000016553206
     3       -0.000034365562      0.000003124893      0.000072589872
     4        0.000000000000      0.000000000000      0.000000000000
     5        0.000038158944     -0.000016677474     -0.000027614400
     6        0.000020945734     -0.000021588645     -0.000039362542
     7        0.000068606662      0.000051714435     -0.000071026511
     8        0.000014358415     -0.000062737999     -0.000066728769

 Cartesian components of stress tensor (hartree/bohr^3)
  sigma(1 1)=  1.13235239E-04  sigma(3 2)= -1.53762199E-06
  sigma(2 2)=  1.52783337E-05  sigma(3 1)= -1.07705594E-06
  sigma(3 3)=  1.59957179E-05  sigma(2 1)= -7.14284697E-07

-Cartesian components of stress tensor (GPa)         [Pressure= -1.4172E+00 GPa]
- sigma(1 1)=  3.33149520E+00  sigma(3 2)= -4.52383931E-02
- sigma(2 2)=  4.49504022E-01  sigma(3 1)= -3.16880743E-02
- sigma(3 3)=  4.70610190E-01  sigma(2 1)= -2.10149778E-02

== END DATASET(S) ==============================================================
================================================================================
  
 -outvars: echo values of variables after computation  --------
-          iomode           1
            acell      1.9000000000E+01  9.4500000000E+00  9.4500000000E+00 Bohr
              amu      1.59994000E+01  1.40067400E+01  1.00794000E+00
           bandpp          10
       cellcharge      1.00000000E+00
     densfor_pred           6
             ecut      2.00000000E+01 Hartree
           etotal     -2.9444034420E+01
            fcart      1.3742690184E-02 -1.5432985456E-04 -2.3949030508E-04
                       2.6513618839E-05 -5.5640135531E-06 -2.6196610702E-06
                       2.5668515874E-05  4.7131576658E-06 -1.2694276121E-05
                      -1.3796899428E-02  2.0847269732E-04  2.4619564588E-04
                      -6.9543578168E-06 -1.4965741164E-05  2.6237246512E-05
                       1.4318325192E-05  1.0798724619E-05  3.6355218065E-06
                       2.8512096999E-05 -4.1387830698E-05 -1.7307085414E-05
                      -3.3848954979E-05 -7.7371396317E-06 -3.9570865108E-06
-          fftalg         312
           iatfix        1    4
           ionmov           2
           istwfk        2
              ixc           2
           kptopt           0
P           mkmem           1
           natfix           2
            natom           8
            nband          10
            ngfft          80      40      40
          ngfftdg         120      54      54
             nkpt           1
            nstep          50
             nsym           1
            ntime         500
           ntypat           3
              occ      2.000000  2.000000  2.000000  2.000000  2.000000  2.000000
                       2.000000  2.000000  0.000000  0.000000
        optforces           1
        paral_kgb           1
        pawecutdg      4.00000000E+01 Hartree
          spgroup           1
           strten      1.1323523938E-04  1.5278333745E-05  1.5995717937E-05
                      -1.5376219881E-06 -1.0770559351E-06 -7.1428469676E-07
           toldff      5.00000000E-07
            typat      1  3  3  2  3  3  3  3
           useylm           1
         wfoptalg         114
           xangst      0.0000000000E+00  0.0000000000E+00  0.0000000000E+00
                      -3.7634729038E-01 -2.8551360880E-01  8.7108277802E-01
                      -3.8474552397E-01  8.6761562673E-01 -2.8503699804E-01
                       4.0000000000E+00  0.0000000000E+00  0.0000000000E+00
                       4.3463836640E+00 -9.9873399455E-02 -9.5463809201E-01
                       4.3192105961E+00 -7.8680795887E-01  5.6680315877E-01
                       4.3416897966E+00  8.7385860965E-01  4.0194481598E-01
                       1.0281443648E+00  2.2386264543E-02  1.5346307800E-02
            xcart      0.0000000000E+00  0.0000000000E+00  0.0000000000E+00
                      -7.1119330966E-01 -5.3954252784E-01  1.6461078895E+00
                      -7.2706367116E-01  1.6395559231E+00 -5.3864186404E-01
                       7.5589045315E+00  0.0000000000E+00  0.0000000000E+00
                       8.2134747935E+00 -1.8873337293E-01 -1.8040045499E+00
                       8.1621251369E+00 -1.4868515614E+00  1.0711027413E+00
                       8.2046046694E+00  1.6513534511E+00  7.5956562273E-01
                       1.9429112745E+00  4.2303909125E-02  2.9000318893E-02
             xred      0.0000000000E+00  0.0000000000E+00  0.0000000000E+00
                      -3.7431226824E-02 -5.7094447391E-02  1.7419131106E-01
                      -3.8266509008E-02  1.7349798128E-01 -5.6999139052E-02
                       3.9783708061E-01  0.0000000000E+00  0.0000000000E+00
                       4.3228814702E-01 -1.9971785495E-02 -1.9089995237E-01
                       4.2958553352E-01 -1.5733878957E-01  1.1334420543E-01
                       4.3182129839E-01  1.7474639694E-01  8.0377314575E-02
                       1.0225848813E-01  4.4766041402E-03  3.0688168141E-03
            znucl        8.00000    7.00000    1.00000

================================================================================


- Timing analysis has been suppressed with timopt=0



================================================================================

 Suggested references for the acknowledgment of ABINIT usage.

 The users of ABINIT have little formal obligations with respect to the ABINIT group
 (those specified in the GNU General Public License, http://www.gnu.org/copyleft/gpl.txt).
 However, it is common practice in the scientific literature,
 to acknowledge the efforts of people that have made the research possible.
 In this spirit, please find below suggested citations of work written by ABINIT developers,
 corresponding to implementations inside of ABINIT that you have used in the present run.
 Note also that it will be of great value to readers of publications presenting these results,
 to read papers enabling them to understand the theoretical formalism and details
 of the ABINIT implementation.
 For information on why they are suggested, see also https://docs.abinit.org/theory/acknowledgments.
-
- [1] Implementation of the Projector Augmented-Wave Method in the ABINIT code.
- M. Torrent, F. Jollet, F. Bottin, G. Zerah, and X. Gonze Comput. Mat. Science 42, 337, (2008).
- Comment: PAW calculations. Strong suggestion to cite this paper.
- DOI and bibtex: see https://docs.abinit.org/theory/bibliography/#torrent2008
-
- [2] Large scale ab initio calculations based on three levels of parallelization
- F. Bottin, S. Leroux, A. Knyazev, G. Zerah, Comput. Mat. Science 42, 329, (2008).
- Comment: in case LOBPCG algorithm is used (wfoptalg=4/14/114).
- Strong suggestion to cite this paper in your publications.
- This paper is also available at http://www.arxiv.org/abs/0707.3405
- DOI and bibtex: see https://docs.abinit.org/theory/bibliography/#bottin2008
-
- [3] The Abinit project: Impact, environment and recent developments.
- Computer Phys. Comm. 248, 107042 (2020).
- X.Gonze, B. Amadon, G. Antonius, F.Arnardi, L.Baguet, J.-M.Beuken,
- J.Bieder, F.Bottin, J.Bouchet, E.Bousquet, N.Brouwer, F.Bruneval,
- G.Brunin, T.Cavignac, J.-B. Charraud, Wei Chen, M.Cote, S.Cottenier,
- J.Denier, G.Geneste, Ph.Ghosez, M.Giantomassi, Y.Gillet, O.Gingras,
- D.R.Hamann, G.Hautier, Xu He, N.Helbig, N.Holzwarth, Y.Jia, F.Jollet,
- W.Lafargue-Dit-Hauret, K.Lejaeghere, M.A.L.Marques, A.Martin, C.Martins,
- H.P.C. Miranda, F.Naccarato, K. Persson, G.Petretto, V.Planes, Y.Pouillon,
- S.Prokhorenko, F.Ricci, G.-M.Rignanese, A.H.Romero, M.M.Schmitt, M.Torrent,
- M.J.van Setten, B.Van Troeye, M.J.Verstraete, G.Zerah and J.W.Zwanzig
- Comment: the fifth generic paper describing the ABINIT project.
- Note that a version of this paper, that is not formatted for Computer Phys. Comm. 
- is available at https://www.abinit.org/sites/default/files/ABINIT20.pdf .
- The licence allows the authors to put it on the Web.
- DOI and bibtex: see https://docs.abinit.org/theory/bibliography/#gonze2020
-
- [4] ABINIT: Overview, and focus on selected capabilities
- J. Chem. Phys. 152, 124102 (2020).
- A. Romero, D.C. Allan, B. Amadon, G. Antonius, T. Applencourt, L.Baguet,
- J.Bieder, F.Bottin, J.Bouchet, E.Bousquet, F.Bruneval,
- G.Brunin, D.Caliste, M.Cote,
- J.Denier, C. Dreyer, Ph.Ghosez, M.Giantomassi, Y.Gillet, O.Gingras,
- D.R.Hamann, G.Hautier, F.Jollet, G. Jomard,
- A.Martin, 
- H.P.C. Miranda, F.Naccarato, G.Petretto, N.A. Pike, V.Planes,
- S.Prokhorenko, T. Rangel, F.Ricci, G.-M.Rignanese, M.Royo, M.Stengel, M.Torrent,
- M.J.van Setten, B.Van Troeye, M.J.Verstraete, J.Wiktor, J.W.Zwanziger, and X.Gonze.
- Comment: a global overview of ABINIT, with focus on selected capabilities .
- Note that a version of this paper, that is not formatted for J. Chem. Phys 
- is available at https://www.abinit.org/sites/default/files/ABINIT20_JPC.pdf .
- The licence allows the authors to put it on the Web.
- DOI and bibtex: see https://docs.abinit.org/theory/bibliography/#romero2020
-
- [5] Recent developments in the ABINIT software package.
- Computer Phys. Comm. 205, 106 (2016).
- X.Gonze, F.Jollet, F.Abreu Araujo, D.Adams, B.Amadon, T.Applencourt,
- C.Audouze, J.-M.Beuken, J.Bieder, A.Bokhanchuk, E.Bousquet, F.Bruneval
- D.Caliste, M.Cote, F.Dahm, F.Da Pieve, M.Delaveau, M.Di Gennaro,
- B.Dorado, C.Espejo, G.Geneste, L.Genovese, A.Gerossier, M.Giantomassi,
- Y.Gillet, D.R.Hamann, L.He, G.Jomard, J.Laflamme Janssen, S.Le Roux,
- A.Levitt, A.Lherbier, F.Liu, I.Lukacevic, A.Martin, C.Martins,
- M.J.T.Oliveira, S.Ponce, Y.Pouillon, T.Rangel, G.-M.Rignanese,
- A.H.Romero, B.Rousseau, O.Rubel, A.A.Shukri, M.Stankovski, M.Torrent,
- M.J.Van Setten, B.Van Troeye, M.J.Verstraete, D.Waroquier, J.Wiktor,
- B.Xu, A.Zhou, J.W.Zwanziger.
- Comment: the fourth generic paper describing the ABINIT project.
- Note that a version of this paper, that is not formatted for Computer Phys. Comm. 
- is available at https://www.abinit.org/sites/default/files/ABINIT16.pdf .
- The licence allows the authors to put it on the Web.
- DOI and bibtex: see https://docs.abinit.org/theory/bibliography/#gonze2016
-
- Proc.   0 individual time (sec): cpu=         21.4  wall=         21.5

================================================================================

 Calculation completed.
.Delivered  25 WARNINGs and   3 COMMENTs to log file.
+Overall time at end (sec) : cpu=         21.4  wall=         21.5
