
.Version 10.5.8.2 of ABINIT, released Oct 2025.
.(MPI version, prepared for a x86_64_linux_gnu13.2 computer) 

.Copyright (C) 1998-2025 ABINIT group . 
 ABINIT comes with ABSOLUTELY NO WARRANTY.
 It is free software, and you are welcome to redistribute it
 under certain conditions (GNU General Public License,
 see ~abinit/COPYING or http://www.gnu.org/copyleft/gpl.txt).

 ABINIT is a project of the Universite Catholique de Louvain,
 Corning Inc. and other collaborators, see ~abinit/doc/developers/contributors.txt .
 Please read https://docs.abinit.org/theory/acknowledgments for suggested
 acknowledgments of the ABINIT effort.
 For more information, see https://www.abinit.org .

.Starting date : Sat 20 Dec 2025.
- ( at 17h03 )
  
- input  file    -> /home/buildbot/ABINIT3/eos_gnu_13.2_mpich/trunk__codata2022/tests/TestBot_MPI1/tutoparal_timages_02_MPI1/timages_02.abi
- output file    -> timages_02_MPI1.abo
- root for input  files -> timages_02_MPI1i
- root for output files -> timages_02_MPI1o

 Symmetries : space group P1 (#  1); Bravais aP (primitive triclinic)
================================================================================
 Values of the parameters that define the memory need of the present run
     intxc =       0    ionmov =       2      iscf =      17    lmnmax =       8
     lnmax =       4     mgfft =      80  mpssoang =       2    mqgrid =    5410
     natom =       8  nloc_mem =       2    nspden =       1   nspinor =       1
    nsppol =       1      nsym =       1    n1xccc =       1    ntypat =       3
    occopt =       1   xclevel =       1
-    mband =          10        mffmem =           1         mkmem =           1
       mpw =        3654          nfft =      128000          nkpt =           1
 PAW method is used; the additional fine FFT grid is defined by:
   mgfftf=       120    nfftf =    349920
================================================================================
P This job should need less than                      78.950 Mbytes of memory.
  Rough estimation (10% accuracy) of disk space for files :
_ WF disk file :      0.560 Mbytes ; DEN or POT disk file :      2.672 Mbytes.
================================================================================

--------------------------------------------------------------------------------
------------- Echo of variables that govern the present computation ------------
--------------------------------------------------------------------------------
-
- outvars: echo of selected default values
-   iomode0 =  0 , fftalg0 =512 , wfoptalg0 = 10
-
- outvars: echo of global parameters not present in the input file
-  max_nthreads =    0
-
 -outvars: echo values of preprocessed input variables --------
-          iomode           1
            acell      1.9000000000E+01  9.4500000000E+00  9.4500000000E+00 Bohr
              amu      1.59994000E+01  1.40067400E+01  1.00794000E+00
           bandpp          10
       cellcharge      1.00000000E+00
     densfor_pred           6
             ecut      2.00000000E+01 Hartree
-          fftalg         512
           iatfix        1    4
           ionmov           2
           istwfk        2
              ixc           2
           kptopt           0
P           mkmem           1
           natfix           2
            natom           8
            nband          10
            ngfft          80      40      40
          ngfftdg         120      54      54
             nkpt           1
            nstep          50
             nsym           1
            ntime         500
           ntypat           3
              occ      2.000000  2.000000  2.000000  2.000000  2.000000  2.000000
                       2.000000  2.000000  0.000000  0.000000
        optforces           1
        paral_kgb           1
        pawecutdg      4.00000000E+01 Hartree
          spgroup           1
           toldff      5.00000000E-07
            typat      1  3  3  2  3  3  3  3
           useylm           1
         wfoptalg         114
           xangst      0.0000000000E+00  0.0000000000E+00  0.0000000000E+00
                      -3.0410000112E-01 -1.9040000070E-01  9.0870000336E-01
                      -3.2250000119E-01  9.0280000333E-01 -1.8830000070E-01
                       4.0000000148E+00  0.0000000000E+00  0.0000000000E+00
                       4.4870000166E+00 -1.4920000055E-01 -8.9690000331E-01
                       4.2140000156E+00 -7.8680000291E-01  6.3090000233E-01
                       4.3490000161E+00  8.7090000322E-01  4.2720000158E-01
                       2.9560000109E+00  5.5900000206E-02 -1.3570000050E-01
            xcart      0.0000000000E+00  0.0000000000E+00  0.0000000000E+00
                      -5.7466571701E-01 -3.5980385570E-01  1.7171941370E+00
                      -6.0943667786E-01  1.7060447528E+00 -3.5583543082E-01
                       7.5589045315E+00  0.0000000000E+00  0.0000000000E+00
                       8.4792011583E+00 -2.8194713903E-01 -1.6948953686E+00
                       7.9633059240E+00 -1.4868365214E+00  1.1922282172E+00
                       8.2184189519E+00  1.6457624891E+00  8.0729100397E-01
                       5.5860304488E+00  1.0563569083E-01 -2.5643583623E-01
             xred      0.0000000000E+00  0.0000000000E+00  0.0000000000E+00
                      -3.0245564053E-02 -3.8074482085E-02  1.8171366529E-01
                      -3.2075614624E-02  1.8053383627E-01 -3.7654542944E-02
                       3.9783708061E-01  0.0000000000E+00  0.0000000000E+00
                       4.4627374517E-01 -2.9835676087E-02 -1.7935400726E-01
                       4.1912136442E-01 -1.5733719803E-01  1.2616171611E-01
                       4.3254836589E-01  1.7415476075E-01  8.5427619468E-02
                       2.9400160257E-01  1.1178379982E-02 -2.7136067326E-02
            znucl        8.00000    7.00000    1.00000

================================================================================

 chkinp: Checking input parameters for consistency.

================================================================================
== DATASET  1 ==================================================================
-   mpi_nproc: 1, omp_nthreads: -1 (-1 if OMP is not activated)


--- !DatasetInfo
iteration_state: {dtset: 1, }
dimensions: {natom: 8, nkpt: 1, mband: 10, nsppol: 1, nspinor: 1, nspden: 1, mpw: 3654, }
cutoff_energies: {ecut:  20.0, pawecutdg:  40.0, }
electrons: {nelect:   1.60000000E+01, charge:   1.00000000E+00, occopt:   1.00000000E+00, tsmear:   1.00000000E-02, }
meta: {optdriver: 0, ionmov: 2, optcell: 0, iscf: 17, paral_kgb: 1, }
...

 Exchange-correlation functional for the present dataset will be:
  LDA: Perdew-Zunger-Ceperley-Alder - ixc=2
 Citation for XC functional:
  J.P.Perdew and A.Zunger, PRB 23, 5048 (1981)

 Real(R)+Recip(G) space primitive vectors, cartesian coordinates (Bohr,Bohr^-1):
 R(1)= 19.0000000  0.0000000  0.0000000  G(1)=  0.0526316  0.0000000  0.0000000
 R(2)=  0.0000000  9.4500000  0.0000000  G(2)=  0.0000000  0.1058201  0.0000000
 R(3)=  0.0000000  0.0000000  9.4500000  G(3)=  0.0000000  0.0000000  0.1058201
 Unit cell volume ucvol=  1.6967475E+03 bohr^3
 Angles (23,13,12)=  9.00000000E+01  9.00000000E+01  9.00000000E+01 degrees

 Coarse grid specifications (used for wave-functions):

 getcut: wavevector=  0.0000  0.0000  0.0000  ngfft=  80  40  40
         ecut(hartree)=     20.000   => boxcut(ratio)=   2.09149

 Fine grid specifications (used for densities):

 getcut: wavevector=  0.0000  0.0000  0.0000  ngfft= 120  54  54
         ecut(hartree)=     40.000   => boxcut(ratio)=   2.00709

--- Pseudopotential description ------------------------------------------------
- pspini: atom type   1  psp file is /home/buildbot/ABINIT3/eos_gnu_13.2_mpich/trunk__codata2022/tests/Pspdir/8o_hard.paw
- pspatm: opening atomic psp file    /home/buildbot/ABINIT3/eos_gnu_13.2_mpich/trunk__codata2022/tests/Pspdir/8o_hard.paw
- oxygen - PAW data extracted from US-psp (D.Vanderbilt) - generated by USpp2Abinit v2.3.0
-  8.00000   6.00000  20090106                znucl, zion, pspdat
    7    2    1    0       489   0.00000      pspcod,pspxc,lmax,lloc,mmax,r2well
 Pseudopotential format is: paw4
 basis_size (lnmax)=  4 (lmn_size=  8), orbitals=   0   0   1   1
 Spheres core radius: rc_sph= 1.11262345
 5 radial meshes are used:
  - mesh 1: r(i)=AA*[exp(BB*(i-1))-1], size= 489 , AA= 0.30984E-03 BB= 0.16949E-01
  - mesh 2: r(i)=AA*[exp(BB*(i-1))-1], size= 548 , AA= 0.30984E-03 BB= 0.16949E-01
  - mesh 3: r(i)=AA*[exp(BB*(i-1))-1], size= 506 , AA= 0.30984E-03 BB= 0.16949E-01
  - mesh 4: r(i)=AA*[exp(BB*(i-1))-1], size= 613 , AA= 0.30984E-03 BB= 0.16949E-01
  - mesh 5: r(i)=AA*[exp(BB*(i-1))-1], size= 608 , AA= 0.30984E-03 BB= 0.16949E-01
 Shapefunction is BESSEL type: shapef(r,l)=aa(1,l)*jl(q(1,l)*r)+aa(2,l)*jl(q(2,l)*r)
 Radius for shape functions = sphere core radius
 Radial grid used for partial waves is grid 1
 Radial grid used for projectors is grid  2
 Radial grid used for (t)core density is grid 3
 Radial grid used for Vloc is grid 4
 Radial grid used for pseudo valence density is grid 5
 Compensation charge density is taken into account in XC energy/potential
 pspatm: atomic psp has been read  and splines computed

- pspini: atom type   2  psp file is /home/buildbot/ABINIT3/eos_gnu_13.2_mpich/trunk__codata2022/tests/Pspdir/7n.paw
- pspatm: opening atomic psp file    /home/buildbot/ABINIT3/eos_gnu_13.2_mpich/trunk__codata2022/tests/Pspdir/7n.paw
- nitrogen - PAW data extracted from US-psp (D.Vanderbilt) - generated by USpp2Abinit v2.3.0
-  7.00000   5.00000  20090106                znucl, zion, pspdat
    7    2    1    0       481   0.00000      pspcod,pspxc,lmax,lloc,mmax,r2well
 Pseudopotential format is: paw4
 basis_size (lnmax)=  4 (lmn_size=  8), orbitals=   0   0   1   1
 Spheres core radius: rc_sph= 1.11028687
 4 radial meshes are used:
  - mesh 1: r(i)=AA*[exp(BB*(i-1))-1], size= 481 , AA= 0.35411E-03 BB= 0.16949E-01
  - mesh 2: r(i)=AA*[exp(BB*(i-1))-1], size= 540 , AA= 0.35411E-03 BB= 0.16949E-01
  - mesh 3: r(i)=AA*[exp(BB*(i-1))-1], size= 507 , AA= 0.35411E-03 BB= 0.16949E-01
  - mesh 4: r(i)=AA*[exp(BB*(i-1))-1], size= 605 , AA= 0.35411E-03 BB= 0.16949E-01
 Shapefunction is BESSEL type: shapef(r,l)=aa(1,l)*jl(q(1,l)*r)+aa(2,l)*jl(q(2,l)*r)
 Radius for shape functions = sphere core radius
 Radial grid used for partial waves is grid 1
 Radial grid used for projectors is grid  2
 Radial grid used for (t)core density is grid 3
 Radial grid used for Vloc is grid 4
 Radial grid used for pseudo valence density is grid 4
 Compensation charge density is taken into account in XC energy/potential
 pspatm: atomic psp has been read  and splines computed

- pspini: atom type   3  psp file is /home/buildbot/ABINIT3/eos_gnu_13.2_mpich/trunk__codata2022/tests/Pspdir/1h.paw
- pspatm: opening atomic psp file    /home/buildbot/ABINIT3/eos_gnu_13.2_mpich/trunk__codata2022/tests/Pspdir/1h.paw
- hydrogen - PAW data extracted from US-psp (D.Vanderbilt) - generated by USpp2Abinit v2.3.0
-  1.00000   1.00000  20090106                znucl, zion, pspdat
    7    2    0    0       347   0.00000      pspcod,pspxc,lmax,lloc,mmax,r2well
 Pseudopotential format is: paw4
 basis_size (lnmax)=  1 (lmn_size=  1), orbitals=   0
 Spheres core radius: rc_sph= 0.79976805
 4 radial meshes are used:
  - mesh 1: r(i)=AA*[exp(BB*(i-1))-1], size= 347 , AA= 0.24788E-02 BB= 0.16949E-01
  - mesh 2: r(i)=AA*[exp(BB*(i-1))-1], size= 344 , AA= 0.24788E-02 BB= 0.16949E-01
  - mesh 3: r(i)=AA*[exp(BB*(i-1))-1], size= 490 , AA= 0.24788E-02 BB= 0.16949E-01
  - mesh 4: r(i)=AA*[exp(BB*(i-1))-1], size= 492 , AA= 0.24788E-02 BB= 0.16949E-01
 Shapefunction is BESSEL type: shapef(r,l)=aa(1,l)*jl(q(1,l)*r)+aa(2,l)*jl(q(2,l)*r)
 Radius for shape functions = sphere core radius
 Radial grid used for partial waves is grid 1
 Radial grid used for projectors is grid  2
 Radial grid used for (t)core density is grid 1
 Radial grid used for Vloc is grid 3
 Radial grid used for pseudo valence density is grid 4
 Compensation charge density is taken into account in XC energy/potential
 pspatm: atomic psp has been read  and splines computed

   1.09721832E+02                                ecore*ucvol(ha*bohr**3)
--------------------------------------------------------------------------------

_setup2: Arith. and geom. avg. npw (full set) are    7307.000    7307.000

================================================================================

=== [ionmov= 2] Broyden-Fletcher-Goldfarb-Shanno method (forces)
================================================================================

--- Iteration: (  1/500) Internal Cycle: (1/1)
--------------------------------------------------------------------------------

---SELF-CONSISTENT-FIELD CONVERGENCE--------------------------------------------

--- !BeginCycle
iteration_state: {dtset: 1, itime: 1, icycle: 1, }
solver: {iscf: 17, nstep: 50, nline: 4, wfoptalg: 114, }
tolerances: {toldff: 5.00E-07, }
...

     iter   Etot(hartree)      deltaE(h)  residm     nres2    diffor    maxfor
 ETOT  1  -29.630045103673    -2.963E+01 6.774E-04 4.074E+01 4.620E-02 4.620E-02
 ETOT  2  -29.522372615974     1.077E-01 7.352E-07 1.310E+01 6.086E-02 1.641E-02
 ETOT  3  -29.503844042635     1.853E-02 5.029E-06 1.142E+00 2.284E-02 9.956E-03
 ETOT  4  -29.495866605682     7.977E-03 9.282E-05 2.196E-01 6.067E-03 8.650E-03
 ETOT  5  -29.494065739250     1.801E-03 1.965E-05 9.070E-02 1.458E-03 7.192E-03
 ETOT  6  -29.490781175303     3.285E-03 5.864E-05 4.173E-02 1.112E-03 6.080E-03
 ETOT  7  -29.489075319555     1.706E-03 2.482E-05 2.870E-02 9.676E-04 5.112E-03
 ETOT  8  -29.487685966553     1.389E-03 1.073E-05 1.656E-02 9.778E-04 4.134E-03
 ETOT  9  -29.486676303134     1.010E-03 8.351E-06 5.505E-03 1.472E-03 2.662E-03
 ETOT 10  -29.486573633858     1.027E-04 1.612E-06 1.554E-03 9.427E-04 1.719E-03
 ETOT 11  -29.486809224943    -2.356E-04 2.550E-05 5.734E-05 1.117E-03 6.025E-04
 ETOT 12  -29.486810014912    -7.900E-07 6.572E-06 4.830E-05 1.217E-04 7.243E-04
 ETOT 13  -29.486841855382    -3.184E-05 5.166E-06 1.211E-05 9.679E-05 6.275E-04
 ETOT 14  -29.486853665747    -1.181E-05 7.616E-06 1.804E-06 8.677E-05 5.407E-04
 ETOT 15  -29.486856762686    -3.097E-06 4.199E-06 5.408E-07 2.673E-05 5.140E-04
 ETOT 16  -29.486857235966    -4.733E-07 1.807E-06 2.574E-07 7.746E-06 5.146E-04
 ETOT 17  -29.486857366706    -1.307E-07 1.281E-06 1.530E-07 3.095E-06 5.116E-04
 ETOT 18  -29.486857464196    -9.749E-08 5.114E-07 8.618E-08 2.541E-06 5.105E-04
 ETOT 19  -29.486857540640    -7.644E-08 3.920E-07 4.444E-08 1.749E-06 5.100E-04
 ETOT 20  -29.486857600162    -5.952E-08 1.528E-07 1.890E-08 1.621E-06 5.084E-04
 ETOT 21  -29.486857633473    -3.331E-08 1.081E-07 4.396E-09 1.053E-06 5.083E-04
 ETOT 22  -29.486857643967    -1.049E-08 3.211E-08 3.479E-10 9.622E-07 5.078E-04
 ETOT 23  -29.486857644519    -5.519E-10 2.900E-08 7.821E-11 3.449E-07 5.074E-04
 ETOT 24  -29.486857644626    -1.073E-10 5.429E-09 1.751E-11 1.707E-07 5.072E-04

 At SCF step   24, forces are converged : 
  for the second time, max diff in force=  1.707E-07 < toldff=  5.000E-07

 Cartesian components of stress tensor (hartree/bohr^3)
  sigma(1 1)=  9.95418114E-05  sigma(3 2)= -3.89856452E-07
  sigma(2 2)=  3.15256164E-06  sigma(3 1)= -1.01374284E-06
  sigma(3 3)=  4.34600379E-06  sigma(2 1)=  3.96645038E-07


--- !ResultsGS
iteration_state: {dtset: 1, itime: 1, icycle: 1, }
comment   : Summary of ground state results
lattice_vectors:
- [ 19.0000000,   0.0000000,   0.0000000, ]
- [  0.0000000,   9.4500000,   0.0000000, ]
- [  0.0000000,   0.0000000,   9.4500000, ]
lattice_lengths: [  19.00000,    9.45000,    9.45000, ]
lattice_angles: [ 90.000,  90.000,  90.000, ] # degrees, (23, 13, 12)
lattice_volume:   1.6967475E+03
convergence: {deltae: -1.073E-10, res2:  1.751E-11, residm:  5.429E-09, diffor:  1.707E-07, }
etotal    :  -2.94868576E+01
entropy   :   0.00000000E+00
fermie    :  -1.70937200E-01
cartesian_stress_tensor: # hartree/bohr^3
- [  9.95418114E-05,   3.96645038E-07,  -1.01374284E-06, ]
- [  3.96645038E-07,   3.15256164E-06,  -3.89856452E-07, ]
- [ -1.01374284E-06,  -3.89856452E-07,   4.34600379E-06, ]
pressure_GPa:  -1.0497E+00
xred      :
- [  0.0000E+00,   0.0000E+00,   0.0000E+00,  O]
- [ -3.0246E-02,  -3.8074E-02,   1.8171E-01,  H]
- [ -3.2076E-02,   1.8053E-01,  -3.7655E-02,  H]
- [  3.9784E-01,   0.0000E+00,   0.0000E+00,  N]
- [  4.4627E-01,  -2.9836E-02,  -1.7935E-01,  H]
- [  4.1912E-01,  -1.5734E-01,   1.2616E-01,  H]
- [  4.3255E-01,   1.7415E-01,   8.5428E-02,  H]
- [  2.9400E-01,   1.1178E-02,  -2.7136E-02,  H]
cartesian_forces: # hartree/bohr
- [  8.06704024E-03,   1.18734205E-04,  -2.39592815E-04, ]
- [ -8.28816919E-05,  -4.13807865E-06,   9.90108411E-08, ]
- [ -1.16985680E-04,   1.70315093E-05,  -2.03378418E-06, ]
- [ -8.82997127E-03,  -1.58344603E-04,   3.31244258E-04, ]
- [  2.41537370E-04,  -5.34850221E-05,  -3.30814656E-04, ]
- [  2.60601242E-05,  -1.18923055E-04,   1.05866684E-04, ]
- [  1.87960839E-04,   2.23710561E-04,   5.03890049E-05, ]
- [  5.07240074E-04,  -2.45855154E-05,   8.48422973E-05, ]
force_length_stats: {min:   8.29849887E-05, max:   8.83760083E-03, mean:   2.31201164E-03, }
...

 Integrated electronic density in atomic spheres:
 ------------------------------------------------
 Atom  Sphere_radius  Integrated_density
    1        1.11262          3.31794568
    2        0.79977          0.35428301
    3        0.79977          0.35360191
    4        1.11029          2.30631880
    5        0.79977          0.33594066
    6        0.79977          0.33354885
    7        0.79977          0.33663382
    8        0.79977          0.31432709

 PAW TEST:
 ==== Compensation charge inside spheres ============
 The following values must be close to each other ...
 Compensation charge over spherical meshes =      1.217881813279379
 Compensation charge over fine fft grid    =      1.217896876916862

 ==== Results concerning PAW augmentation regions ====

 Total pseudopotential strength Dij (hartree):
 Atom #  1
   1.08412   1.72587  -0.00318  -0.00321   0.00239  -0.00478  -0.00483   0.00359
   1.72587   2.74692  -0.00484  -0.00488   0.00363  -0.00729  -0.00736   0.00546
  -0.00318  -0.00484  -0.41006   0.00318   0.00201  -0.44896   0.00426   0.00269
  -0.00321  -0.00488   0.00318  -0.41014   0.00187   0.00426  -0.44907   0.00250
   0.00239   0.00363   0.00201   0.00187  -0.40498   0.00269   0.00250  -0.44216
  -0.00478  -0.00729  -0.44896   0.00426   0.00269  -0.44592   0.00569   0.00359
  -0.00483  -0.00736   0.00426  -0.44907   0.00250   0.00569  -0.44607   0.00333
   0.00359   0.00546   0.00269   0.00250  -0.44216   0.00359   0.00333  -0.43685
 Atom #  8
  -0.04816


 Augmentation waves occupancies Rhoij:
 Atom #  1
   2.29613  -0.18593   0.14617   0.14779  -0.12842  -0.09296  -0.09391   0.07710
  -0.18593   0.03157  -0.09236  -0.09324   0.07360   0.00869   0.00881  -0.00887
   0.14617  -0.09236   1.11124  -0.11223  -0.07491  -0.07382   0.08017   0.04925
   0.14779  -0.09324  -0.11223   1.11450  -0.06912   0.08017  -0.07598   0.04546
  -0.12842   0.07360  -0.07491  -0.06912   0.88817   0.04916   0.04537   0.06222
  -0.09296   0.00869  -0.07382   0.08017   0.04916   0.01591  -0.00373   0.00111
  -0.09391   0.00881   0.08017  -0.07598   0.04537  -0.00373   0.01590   0.00123
   0.07710  -0.00887   0.04925   0.04546   0.06222   0.00111   0.00123   0.01222
 Atom #  8
   1.58246



---OUTPUT-----------------------------------------------------------------------

 Cartesian coordinates (xcart) [bohr]
  0.00000000000000E+00  0.00000000000000E+00  0.00000000000000E+00
 -5.74665717010524E-01 -3.59803855701426E-01  1.71719413695318E+00
 -6.09436677855620E-01  1.70604475276916E+00 -3.55835430822367E-01
  7.55890453154257E+00  0.00000000000000E+00  0.00000000000000E+00
  8.47920115825788E+00 -2.81947139026538E-01 -1.69489536858513E+00
  7.96330592398010E+00 -1.48683652135442E+00  1.19222821723755E+00
  8.21841895191966E+00  1.64576248913011E+00  8.07291003968747E-01
  5.58603044880996E+00  1.05635690828307E-01 -2.56435836232582E-01
 Reduced coordinates (xred)
  0.00000000000000E+00  0.00000000000000E+00  0.00000000000000E+00
 -3.02455640531855E-02 -3.80744820848070E-02  1.81713665286051E-01
 -3.20756146239800E-02  1.80533836271869E-01 -3.76545429441658E-02
  3.97837080607504E-01  0.00000000000000E+00  0.00000000000000E+00
  4.46273745171467E-01 -2.98356760874643E-02 -1.79354007257686E-01
  4.19121364420005E-01 -1.57337198026923E-01  1.26161716109794E-01
  4.32548365890508E-01  1.74154760754509E-01  8.54276194675923E-02
  2.94001602568945E-01  1.11783799818314E-02 -2.71360673261992E-02
 Cartesian forces (fcart) [Ha/bohr]; max,rms= 5.07240E-04 1.78036E-04 (free atoms)
  8.06704023893451E-03  1.18734204731780E-04 -2.39592814653587E-04
 -8.28816918927400E-05 -4.13807864747329E-06  9.90108410784175E-08
 -1.16985680006146E-04  1.70315092835186E-05 -2.03378417528135E-06
 -8.82997127442674E-03 -1.58344603488767E-04  3.31244257842770E-04
  2.41537370210366E-04 -5.34850220742760E-05 -3.30814655999541E-04
  2.60601241732109E-05 -1.18923055003984E-04  1.05866683969269E-04
  1.87960839087227E-04  2.23710560622171E-04  5.03890048548852E-05
  5.07240073920310E-04 -2.45855154229688E-05  8.48422973204071E-05
 Gradient of E wrt nuclear positions in reduced coordinates (gred)
 -1.53273764539756E-01 -1.12203823471532E-03  2.26415209847640E-03
  1.57475214596206E-03  3.91048432186226E-05 -9.35652448191046E-07
  2.22272792011677E-03 -1.60947762729251E-04  1.92192604564088E-05
  1.67769454214108E-01  1.49635650296885E-03 -3.13025823661417E-03
 -4.58921003399696E-03  5.05433458601909E-04  3.12619849919566E-03
 -4.95142359291007E-04  1.12382286978765E-03 -1.00044016350959E-03
 -3.57125594265732E-03 -2.11406479787951E-03 -4.76176095878665E-04
 -9.63756140448589E-03  2.32333120747055E-04 -8.01759709677847E-04
 Total energy (etotal) [Ha]= -2.94868576446261E+01

--- Iteration: (  2/500) Internal Cycle: (1/1)
--------------------------------------------------------------------------------

---SELF-CONSISTENT-FIELD CONVERGENCE--------------------------------------------

--- !BeginCycle
iteration_state: {dtset: 1, itime: 2, icycle: 1, }
solver: {iscf: 17, nstep: 50, nline: 4, wfoptalg: 114, }
tolerances: {toldff: 5.00E-07, }
...

     iter   Etot(hartree)      deltaE(h)  residm     nres2    diffor    maxfor
 ETOT  1  -29.486858124755    -2.949E+01 4.614E-09 4.130E-06 1.644E-04 3.428E-04
 ETOT  2  -29.486858172929    -4.817E-08 9.372E-10 4.059E-07 1.579E-05 3.419E-04
 ETOT  3  -29.486858172017     9.124E-10 2.071E-09 4.774E-08 6.514E-06 3.354E-04
 ETOT  4  -29.486858171758     2.581E-10 3.228E-10 4.531E-09 1.270E-06 3.362E-04
 ETOT  5  -29.486858171675     8.302E-11 4.581E-10 2.840E-09 5.296E-07 3.362E-04
 ETOT  6  -29.486858171646     2.947E-11 1.912E-10 1.628E-09 3.454E-07 3.360E-04
 ETOT  7  -29.486858171833    -1.872E-10 1.323E-10 8.767E-10 3.966E-07 3.358E-04

 At SCF step    7, forces are converged : 
  for the second time, max diff in force=  3.966E-07 < toldff=  5.000E-07

 Cartesian components of stress tensor (hartree/bohr^3)
  sigma(1 1)=  9.94083344E-05  sigma(3 2)= -3.63051839E-07
  sigma(2 2)=  3.32640254E-06  sigma(3 1)= -1.09969574E-06
  sigma(3 3)=  4.55683647E-06  sigma(2 1)=  4.16082958E-07


--- !ResultsGS
iteration_state: {dtset: 1, itime: 2, icycle: 1, }
comment   : Summary of ground state results
lattice_vectors:
- [ 19.0000000,   0.0000000,   0.0000000, ]
- [  0.0000000,   9.4500000,   0.0000000, ]
- [  0.0000000,   0.0000000,   9.4500000, ]
lattice_lengths: [  19.00000,    9.45000,    9.45000, ]
lattice_angles: [ 90.000,  90.000,  90.000, ] # degrees, (23, 13, 12)
lattice_volume:   1.6967475E+03
convergence: {deltae: -1.872E-10, res2:  8.767E-10, residm:  1.323E-10, diffor:  3.966E-07, }
etotal    :  -2.94868582E+01
entropy   :   0.00000000E+00
fermie    :  -1.70922644E-01
cartesian_stress_tensor: # hartree/bohr^3
- [  9.94083344E-05,   4.16082958E-07,  -1.09969574E-06, ]
- [  4.16082958E-07,   3.32640254E-06,  -3.63051839E-07, ]
- [ -1.09969574E-06,  -3.63051839E-07,   4.55683647E-06, ]
pressure_GPa:  -1.0522E+00
xred      :
- [  0.0000E+00,   0.0000E+00,   0.0000E+00,  O]
- [ -3.0250E-02,  -3.8075E-02,   1.8171E-01,  H]
- [ -3.2082E-02,   1.8054E-01,  -3.7655E-02,  H]
- [  3.9784E-01,   0.0000E+00,   0.0000E+00,  N]
- [  4.4629E-01,  -2.9841E-02,  -1.7939E-01,  H]
- [  4.1912E-01,  -1.5735E-01,   1.2617E-01,  H]
- [  4.3256E-01,   1.7418E-01,   8.5433E-02,  H]
- [  2.9403E-01,   1.1176E-02,  -2.7127E-02,  H]
cartesian_forces: # hartree/bohr
- [  8.04903157E-03,   1.42742884E-04,  -2.30761196E-04, ]
- [ -7.72714195E-05,  -3.50676623E-06,  -1.14854412E-05, ]
- [ -1.05946085E-04,  -7.76171591E-06,   1.33625691E-06, ]
- [ -8.53209036E-03,  -1.47662973E-04,   2.96132056E-04, ]
- [  1.62445095E-04,  -3.17761548E-05,  -1.81001279E-04, ]
- [  1.81752085E-05,  -6.53500164E-05,   6.32636421E-05, ]
- [  1.49859378E-04,   1.24590837E-04,   5.14841050E-06, ]
- [  3.35796610E-04,  -1.12760953E-05,   5.73675506E-05, ]
force_length_stats: {min:   7.81990092E-05, max:   8.53850482E-03, mean:   2.20629713E-03, }
...

 Integrated electronic density in atomic spheres:
 ------------------------------------------------
 Atom  Sphere_radius  Integrated_density
    1        1.11262          3.31792914
    2        0.79977          0.35428398
    3        0.79977          0.35360152
    4        1.11029          2.30625006
    5        0.79977          0.33592736
    6        0.79977          0.33354472
    7        0.79977          0.33662492
    8        0.79977          0.31434712

 PAW TEST:
 ==== Compensation charge inside spheres ============
 The following values must be close to each other ...
 Compensation charge over spherical meshes =      1.217848628027889
 Compensation charge over fine fft grid    =      1.217863572906834

 ==== Results concerning PAW augmentation regions ====

 Total pseudopotential strength Dij (hartree):
 Atom #  1
   1.08412   1.72587  -0.00318  -0.00321   0.00239  -0.00478  -0.00483   0.00359
   1.72587   2.74691  -0.00484  -0.00488   0.00363  -0.00729  -0.00736   0.00546
  -0.00318  -0.00484  -0.41005   0.00318   0.00201  -0.44895   0.00426   0.00269
  -0.00321  -0.00488   0.00318  -0.41014   0.00187   0.00426  -0.44907   0.00250
   0.00239   0.00363   0.00201   0.00187  -0.40498   0.00269   0.00250  -0.44216
  -0.00478  -0.00729  -0.44895   0.00426   0.00269  -0.44591   0.00569   0.00360
  -0.00483  -0.00736   0.00426  -0.44907   0.00250   0.00569  -0.44607   0.00333
   0.00359   0.00546   0.00269   0.00250  -0.44216   0.00360   0.00333  -0.43684
 Atom #  8
  -0.04816


 Augmentation waves occupancies Rhoij:
 Atom #  1
   2.29610  -0.18592   0.14615   0.14778  -0.12843  -0.09295  -0.09390   0.07711
  -0.18592   0.03157  -0.09235  -0.09324   0.07361   0.00869   0.00881  -0.00887
   0.14615  -0.09235   1.11119  -0.11222  -0.07491  -0.07380   0.08016   0.04925
   0.14778  -0.09324  -0.11222   1.11447  -0.06913   0.08017  -0.07597   0.04546
  -0.12843   0.07361  -0.07491  -0.06913   0.88818   0.04916   0.04537   0.06221
  -0.09295   0.00869  -0.07380   0.08017   0.04916   0.01591  -0.00373   0.00111
  -0.09390   0.00881   0.08016  -0.07597   0.04537  -0.00373   0.01590   0.00123
   0.07711  -0.00887   0.04925   0.04546   0.06221   0.00111   0.00123   0.01222
 Atom #  8
   1.58329



---OUTPUT-----------------------------------------------------------------------

 Cartesian coordinates (xcart) [bohr]
  0.00000000000000E+00  0.00000000000000E+00  0.00000000000000E+00
 -5.74748598702417E-01 -3.59807993780073E-01  1.71719423596402E+00
 -6.09553663535626E-01  1.70606178427844E+00 -3.55837464606542E-01
  7.55890453154257E+00  0.00000000000000E+00  0.00000000000000E+00
  8.47944269562809E+00 -2.82000624048612E-01 -1.69522618324113E+00
  7.96333198410427E+00 -1.48695544440942E+00  1.19233408392152E+00
  8.21860691275875E+00  1.64598619969073E+00  8.07341392973602E-01
  5.58653768888388E+00  1.05611105312884E-01 -2.56350993935262E-01
 Reduced coordinates (xred)
  0.00000000000000E+00  0.00000000000000E+00  0.00000000000000E+00
 -3.02499262474956E-02 -3.80749199767274E-02  1.81713675763389E-01
 -3.20817717650329E-02  1.80535638547983E-01 -3.76547581594225E-02
  3.97837080607504E-01  0.00000000000000E+00  0.00000000000000E+00
  4.46286457664636E-01 -2.98413358781600E-02 -1.79389014099590E-01
  4.19122736005488E-01 -1.57349782477188E-01  1.26172918933494E-01
  4.32558258566250E-01  1.74178433829707E-01  8.54329516374182E-02
  2.94028299414941E-01  1.11757783399877E-02 -2.71270893053187E-02
 Cartesian forces (fcart) [Ha/bohr]; max,rms= 3.35797E-04 1.15554E-04 (free atoms)
  8.04903157336333E-03  1.42742884465630E-04 -2.30761195574111E-04
 -7.72714194733405E-05 -3.50676622722954E-06 -1.14854412036954E-05
 -1.05946084798580E-04 -7.76171591437572E-06  1.33625690968260E-06
 -8.53209036148682E-03 -1.47662972717891E-04  2.96132055855552E-04
  1.62445095403579E-04 -3.17761547720309E-05 -1.81001279182444E-04
  1.81752085179692E-05 -6.53500164415922E-05  6.32636421236275E-05
  1.49859378086578E-04  1.24590836924965E-04  5.14841050410044E-06
  3.35796610387285E-04 -1.12760953174748E-05  5.73675505672875E-05
 Gradient of E wrt nuclear positions in reduced coordinates (gred)
 -1.52931599893903E-01 -1.34892025820020E-03  2.18069329817535E-03
  1.46815696999347E-03  3.31389408473192E-05  1.08537419374922E-04
  2.01297561117302E-03  7.33482153908506E-05 -1.26276277965005E-05
  1.62109716868250E-01  1.39541509218407E-03 -2.79844792783497E-03
 -3.08645681266801E-03  3.00284662595692E-04  1.71046208827409E-03
 -3.45328961841414E-04  6.17557655373047E-04 -5.97841418068280E-04
 -2.84732818364498E-03 -1.17738340894092E-03 -4.86524792637491E-05
 -6.38013559735842E-03  1.06559100750137E-04 -5.42123352860867E-04
 Total energy (etotal) [Ha]= -2.94868581718332E+01

 Difference of energy with previous step (new-old):
           Absolute (Ha)=-5.27207E-07
           Relative     =-1.78794E-08

--- Iteration: (  3/500) Internal Cycle: (1/1)
--------------------------------------------------------------------------------

---SELF-CONSISTENT-FIELD CONVERGENCE--------------------------------------------

--- !BeginCycle
iteration_state: {dtset: 1, itime: 3, icycle: 1, }
solver: {iscf: 17, nstep: 50, nline: 4, wfoptalg: 114, }
tolerances: {toldff: 5.00E-07, }
...

     iter   Etot(hartree)      deltaE(h)  residm     nres2    diffor    maxfor
 ETOT  1  -29.486858550810    -2.949E+01 1.074E-08 2.415E-07 3.299E-04 8.760E-05
 ETOT  2  -29.486858550633     1.760E-10 1.659E-09 2.930E-08 3.047E-06 8.762E-05
 ETOT  3  -29.486858550620     1.326E-11 6.045E-10 3.428E-09 1.148E-06 8.787E-05
 ETOT  4  -29.486858587738    -3.712E-08 3.812E-10 2.541E-10 3.114E-07 8.786E-05
 ETOT  5  -29.486858587746    -8.100E-12 2.199E-10 1.306E-10 7.473E-08 8.793E-05

 At SCF step    5, forces are converged : 
  for the second time, max diff in force=  7.473E-08 < toldff=  5.000E-07

 Cartesian components of stress tensor (hartree/bohr^3)
  sigma(1 1)=  9.91073441E-05  sigma(3 2)= -3.14812566E-07
  sigma(2 2)=  3.57964448E-06  sigma(3 1)= -1.25424978E-06
  sigma(3 3)=  4.87327128E-06  sigma(2 1)=  4.56791796E-07


--- !ResultsGS
iteration_state: {dtset: 1, itime: 3, icycle: 1, }
comment   : Summary of ground state results
lattice_vectors:
- [ 19.0000000,   0.0000000,   0.0000000, ]
- [  0.0000000,   9.4500000,   0.0000000, ]
- [  0.0000000,   0.0000000,   9.4500000, ]
lattice_lengths: [  19.00000,    9.45000,    9.45000, ]
lattice_angles: [ 90.000,  90.000,  90.000, ] # degrees, (23, 13, 12)
lattice_volume:   1.6967475E+03
convergence: {deltae: -8.100E-12, res2:  1.306E-10, residm:  2.199E-10, diffor:  7.473E-08, }
etotal    :  -2.94868586E+01
entropy   :   0.00000000E+00
fermie    :  -1.70883693E-01
cartesian_stress_tensor: # hartree/bohr^3
- [  9.91073441E-05,   4.56791796E-07,  -1.25424978E-06, ]
- [  4.56791796E-07,   3.57964448E-06,  -3.14812566E-07, ]
- [ -1.25424978E-06,  -3.14812566E-07,   4.87327128E-06, ]
pressure_GPa:  -1.0548E+00
xred      :
- [  0.0000E+00,   0.0000E+00,   0.0000E+00,  O]
- [ -3.0262E-02,  -3.8076E-02,   1.8171E-01,  H]
- [ -3.2098E-02,   1.8053E-01,  -3.7654E-02,  H]
- [  3.9784E-01,   0.0000E+00,   0.0000E+00,  N]
- [  4.4631E-01,  -2.9851E-02,  -1.7945E-01,  H]
- [  4.1913E-01,  -1.5737E-01,   1.2619E-01,  H]
- [  4.3258E-01,   1.7422E-01,   8.5435E-02,  H]
- [  2.9408E-01,   1.1172E-02,  -2.7109E-02,  H]
cartesian_forces: # hartree/bohr
- [  8.01566523E-03,   1.79994873E-04,  -2.14506054E-04, ]
- [ -6.72097083E-05,  -5.81706311E-06,  -2.86597358E-05, ]
- [ -8.79254083E-05,  -4.33317457E-05,   2.73318229E-06, ]
- [ -7.97721924E-03,  -1.31028832E-04,   2.39311315E-04, ]
- [  2.55902830E-05,   1.10027937E-06,   6.81566644E-05, ]
- [  5.63981089E-06,   2.30722339E-05,  -5.77229087E-06, ]
- [  8.17955591E-05,  -3.98167109E-05,  -6.55242727E-05, ]
- [  3.66347503E-06,   1.58269656E-05,   4.26119132E-06, ]
force_length_stats: {min:   1.67949886E-05, max:   8.02055485E-03, mean:   2.04999469E-03, }
...

 Integrated electronic density in atomic spheres:
 ------------------------------------------------
 Atom  Sphere_radius  Integrated_density
    1        1.11262          3.31790178
    2        0.79977          0.35428626
    3        0.79977          0.35281390
    4        1.11029          2.30615455
    5        0.79977          0.33446794
    6        0.79977          0.33353847
    7        0.79977          0.33587398
    8        0.79977          0.31438147

 PAW TEST:
 ==== Compensation charge inside spheres ============
 The following values must be close to each other ...
 Compensation charge over spherical meshes =      1.217799225293726
 Compensation charge over fine fft grid    =      1.217814126111340

 ==== Results concerning PAW augmentation regions ====

 Total pseudopotential strength Dij (hartree):
 Atom #  1
   1.08412   1.72586  -0.00318  -0.00321   0.00239  -0.00478  -0.00483   0.00359
   1.72586   2.74691  -0.00484  -0.00488   0.00363  -0.00729  -0.00736   0.00547
  -0.00318  -0.00484  -0.41004   0.00318   0.00201  -0.44894   0.00426   0.00269
  -0.00321  -0.00488   0.00318  -0.41013   0.00187   0.00426  -0.44905   0.00250
   0.00239   0.00363   0.00201   0.00187  -0.40497   0.00269   0.00250  -0.44215
  -0.00478  -0.00729  -0.44894   0.00426   0.00269  -0.44589   0.00569   0.00360
  -0.00483  -0.00736   0.00426  -0.44905   0.00250   0.00569  -0.44605   0.00333
   0.00359   0.00547   0.00269   0.00250  -0.44215   0.00360   0.00333  -0.43683
 Atom #  8
  -0.04817


 Augmentation waves occupancies Rhoij:
 Atom #  1
   2.29606  -0.18590   0.14611   0.14777  -0.12846  -0.09293  -0.09389   0.07714
  -0.18590   0.03157  -0.09234  -0.09323   0.07365   0.00869   0.00881  -0.00888
   0.14611  -0.09234   1.11111  -0.11220  -0.07493  -0.07377   0.08016   0.04927
   0.14777  -0.09323  -0.11220   1.11441  -0.06914   0.08016  -0.07595   0.04548
  -0.12846   0.07365  -0.07493  -0.06914   0.88822   0.04918   0.04538   0.06218
  -0.09293   0.00869  -0.07377   0.08016   0.04918   0.01591  -0.00372   0.00112
  -0.09389   0.00881   0.08016  -0.07595   0.04538  -0.00372   0.01590   0.00123
   0.07714  -0.00888   0.04927   0.04548   0.06218   0.00112   0.00123   0.01222
 Atom #  8
   1.58487



---OUTPUT-----------------------------------------------------------------------

 Cartesian coordinates (xcart) [bohr]
  0.00000000000000E+00  0.00000000000000E+00  0.00000000000000E+00
 -5.74970352736069E-01 -3.59818084789827E-01  1.71716217390196E+00
 -6.09857950624982E-01  1.70604134516760E+00 -3.55833880779420E-01
  7.55890453154257E+00  0.00000000000000E+00  0.00000000000000E+00
  8.47991375317792E+00 -2.82093219914759E-01 -1.69575551525035E+00
  7.96338461868502E+00 -1.48714652088201E+00  1.19251838977769E+00
  8.21903895065649E+00  1.64635027152487E+00  8.07359415712278E-01
  5.58751200575825E+00  1.05577840927163E-01 -2.56184672833646E-01
 Reduced coordinates (xred)
  0.00000000000000E+00  0.00000000000000E+00  0.00000000000000E+00
 -3.02615975124247E-02 -3.80759878084473E-02  1.81710282952589E-01
 -3.20977868749991E-02  1.80533475679111E-01 -3.76543789184572E-02
  3.97837080607504E-01  0.00000000000000E+00  0.00000000000000E+00
  4.46311250167259E-01 -2.98511343825142E-02 -1.79445028068820E-01
  4.19125506246580E-01 -1.57370002209737E-01  1.26192422198697E-01
  4.32580997402973E-01  1.74216959949722E-01  8.54348588055321E-02
  2.94079579250434E-01  1.11722582991706E-02 -2.71094891887456E-02
 Cartesian forces (fcart) [Ha/bohr]; max,rms= 8.79254E-05 4.32940E-05 (free atoms)
  8.01566523350446E-03  1.79994872672037E-04 -2.14506053690710E-04
 -6.72097083396140E-05 -5.81706310741762E-06 -2.86597358392418E-05
 -8.79254083227471E-05 -4.33317457262516E-05  2.73318229160229E-06
 -7.97721924477189E-03 -1.31028831841707E-04  2.39311315105872E-04
  2.55902829616573E-05  1.10027937011298E-06  6.81566644042593E-05
  5.63981088614640E-06  2.30722339149583E-05 -5.77229087074116E-06
  8.17955590532685E-05 -3.98167108803703E-05 -6.55242727226403E-05
  3.66347502872245E-06  1.58269655986383E-05  4.26119132159976E-06
 Gradient of E wrt nuclear positions in reduced coordinates (gred)
 -1.52297639436585E-01 -1.70095154675075E-03  2.02708220737721E-03
  1.27698445845267E-03  5.49712463650965E-05  2.70834503680835E-04
  1.67058275813220E-03  4.09484997113077E-04 -2.58285726556416E-05
  1.51567165650666E-01  1.23822246090413E-03 -2.26149192775049E-03
 -4.86215376271488E-04 -1.03976400475677E-05 -6.44080478620250E-04
 -1.07156406836782E-04 -2.18032610496356E-04  5.45481487285040E-05
 -1.55411562201210E-03  3.76267917819499E-04  6.19204377228951E-04
 -6.96060255457266E-05 -1.49564824907132E-04 -4.02682579891177E-05
 Total energy (etotal) [Ha]= -2.94868585877458E+01

 Difference of energy with previous step (new-old):
           Absolute (Ha)=-4.15913E-07
           Relative     =-1.41050E-08

--- Iteration: (  4/500) Internal Cycle: (1/1)
--------------------------------------------------------------------------------

---SELF-CONSISTENT-FIELD CONVERGENCE--------------------------------------------

--- !BeginCycle
iteration_state: {dtset: 1, itime: 4, icycle: 1, }
solver: {iscf: 17, nstep: 50, nline: 4, wfoptalg: 114, }
tolerances: {toldff: 5.00E-07, }
...

     iter   Etot(hartree)      deltaE(h)  residm     nres2    diffor    maxfor
 ETOT  1  -29.486858624203    -2.949E+01 2.635E-10 1.421E-07 2.787E-05 8.622E-05
 ETOT  2  -29.486858624163     3.935E-11 8.347E-11 1.748E-08 1.929E-06 8.663E-05
 ETOT  3  -29.486858624143     2.012E-11 4.343E-11 2.602E-09 7.982E-07 8.651E-05
 ETOT  4  -29.486858624126     1.752E-11 1.767E-11 3.015E-10 3.614E-07 8.670E-05
 ETOT  5  -29.486858624125     1.023E-12 6.705E-12 1.616E-10 1.164E-07 8.669E-05

 At SCF step    5, forces are converged : 
  for the second time, max diff in force=  1.164E-07 < toldff=  5.000E-07

 Cartesian components of stress tensor (hartree/bohr^3)
  sigma(1 1)=  9.90806576E-05  sigma(3 2)= -3.13068816E-07
  sigma(2 2)=  3.57972466E-06  sigma(3 1)= -1.26307655E-06
  sigma(3 3)=  4.87292834E-06  sigma(2 1)=  4.62554283E-07


--- !ResultsGS
iteration_state: {dtset: 1, itime: 4, icycle: 1, }
comment   : Summary of ground state results
lattice_vectors:
- [ 19.0000000,   0.0000000,   0.0000000, ]
- [  0.0000000,   9.4500000,   0.0000000, ]
- [  0.0000000,   0.0000000,   9.4500000, ]
lattice_lengths: [  19.00000,    9.45000,    9.45000, ]
lattice_angles: [ 90.000,  90.000,  90.000, ] # degrees, (23, 13, 12)
lattice_volume:   1.6967475E+03
convergence: {deltae:  1.023E-12, res2:  1.616E-10, residm:  6.705E-12, diffor:  1.164E-07, }
etotal    :  -2.94868586E+01
entropy   :   0.00000000E+00
fermie    :  -1.70879954E-01
cartesian_stress_tensor: # hartree/bohr^3
- [  9.90806576E-05,   4.62554283E-07,  -1.26307655E-06, ]
- [  4.62554283E-07,   3.57972466E-06,  -3.13068816E-07, ]
- [ -1.26307655E-06,  -3.13068816E-07,   4.87292834E-06, ]
pressure_GPa:  -1.0546E+00
xred      :
- [  0.0000E+00,   0.0000E+00,   0.0000E+00,  O]
- [ -3.0266E-02,  -3.8077E-02,   1.8171E-01,  H]
- [ -3.2104E-02,   1.8053E-01,  -3.7654E-02,  H]
- [  3.9784E-01,   0.0000E+00,   0.0000E+00,  N]
- [  4.4631E-01,  -2.9852E-02,  -1.7944E-01,  H]
- [  4.1913E-01,  -1.5737E-01,   1.2619E-01,  H]
- [  4.3259E-01,   1.7422E-01,   8.5428E-02,  H]
- [  2.9408E-01,   1.1174E-02,  -2.7107E-02,  H]
cartesian_forces: # hartree/bohr
- [  8.01270012E-03,   1.80285434E-04,  -2.12032414E-04, ]
- [ -6.55364788E-05,  -9.18504309E-06,  -2.73542723E-05, ]
- [ -8.66942025E-05,  -4.03642160E-05,  -1.00956575E-06, ]
- [ -7.93418087E-03,  -1.31499742E-04,   2.39699121E-04, ]
- [  1.87636556E-05,  -1.65085593E-06,   7.00374180E-05, ]
- [  4.66619495E-06,   2.42441854E-05,  -5.81888250E-06, ]
- [  7.57000720E-05,  -4.14104917E-05,  -6.25885847E-05, ]
- [ -2.54184861E-05,   1.95807296E-05,  -9.32820054E-07, ]
force_length_stats: {min:   2.53655927E-05, max:   8.01753227E-03, mean:   2.04503156E-03, }
...

 Integrated electronic density in atomic spheres:
 ------------------------------------------------
 Atom  Sphere_radius  Integrated_density
    1        1.11262          3.31790324
    2        0.79977          0.35428720
    3        0.79977          0.35281470
    4        1.11029          2.30616468
    5        0.79977          0.33446808
    6        0.79977          0.33353832
    7        0.79977          0.33587386
    8        0.79977          0.31571127

 PAW TEST:
 ==== Compensation charge inside spheres ============
 The following values must be close to each other ...
 Compensation charge over spherical meshes =      1.217802593168994
 Compensation charge over fine fft grid    =      1.217817670935375

 ==== Results concerning PAW augmentation regions ====

 Total pseudopotential strength Dij (hartree):
 Atom #  1
   1.08412   1.72586  -0.00318  -0.00321   0.00239  -0.00478  -0.00483   0.00359
   1.72586   2.74691  -0.00484  -0.00488   0.00363  -0.00729  -0.00736   0.00547
  -0.00318  -0.00484  -0.41004   0.00318   0.00201  -0.44893   0.00426   0.00270
  -0.00321  -0.00488   0.00318  -0.41013   0.00187   0.00426  -0.44905   0.00250
   0.00239   0.00363   0.00201   0.00187  -0.40497   0.00270   0.00250  -0.44215
  -0.00478  -0.00729  -0.44893   0.00426   0.00270  -0.44589   0.00569   0.00360
  -0.00483  -0.00736   0.00426  -0.44905   0.00250   0.00569  -0.44604   0.00333
   0.00359   0.00547   0.00270   0.00250  -0.44215   0.00360   0.00333  -0.43683
 Atom #  8
  -0.04817


 Augmentation waves occupancies Rhoij:
 Atom #  1
   2.29606  -0.18590   0.14610   0.14776  -0.12849  -0.09292  -0.09389   0.07715
  -0.18590   0.03157  -0.09233  -0.09323   0.07366   0.00869   0.00881  -0.00888
   0.14610  -0.09233   1.11110  -0.11220  -0.07494  -0.07376   0.08016   0.04928
   0.14776  -0.09323  -0.11220   1.11440  -0.06915   0.08016  -0.07594   0.04548
  -0.12849   0.07366  -0.07494  -0.06915   0.88824   0.04919   0.04539   0.06217
  -0.09292   0.00869  -0.07376   0.08016   0.04919   0.01591  -0.00372   0.00112
  -0.09389   0.00881   0.08016  -0.07594   0.04539  -0.00372   0.01590   0.00123
   0.07715  -0.00888   0.04928   0.04548   0.06217   0.00112   0.00123   0.01222
 Atom #  8
   1.58501



---OUTPUT-----------------------------------------------------------------------

 Cartesian coordinates (xcart) [bohr]
  0.00000000000000E+00  0.00000000000000E+00  0.00000000000000E+00
 -5.75058523205924E-01 -3.59825037969437E-01  1.71713022501602E+00
 -6.09974614387369E-01  1.70599564140453E+00 -3.55830944369868E-01
  7.55890453154257E+00  0.00000000000000E+00  0.00000000000000E+00
  8.47998163924655E+00 -2.82100492598894E-01 -1.69573339935434E+00
  7.96339507993393E+00 -1.48714012204500E+00  1.19252903872541E+00
  8.21916058178824E+00  1.64634226418648E+00  8.07294515418410E-01
  5.58760086262962E+00  1.05591174803971E-01 -2.56165780078653E-01
 Reduced coordinates (xred)
  0.00000000000000E+00  0.00000000000000E+00  0.00000000000000E+00
 -3.02662380634697E-02 -3.80767235946494E-02  1.81706902118098E-01
 -3.21039270730194E-02  1.80528639302067E-01 -3.76540681872877E-02
  3.97837080607504E-01  0.00000000000000E+00  0.00000000000000E+00
  4.46314823118239E-01 -2.98519039787189E-02 -1.79442687762364E-01
  4.19126056838628E-01 -1.57369325084127E-01  1.26193549071472E-01
  4.32587399041486E-01  1.74216112612325E-01  8.54279910495672E-02
  2.94084255927875E-01  1.11736692914255E-02 -2.71074899554130E-02
 Cartesian forces (fcart) [Ha/bohr]; max,rms= 8.66942E-05 4.25378E-05 (free atoms)
  8.01270011649364E-03  1.80285433574107E-04 -2.12032414287761E-04
 -6.55364787572511E-05 -9.18504309358700E-06 -2.73542722622062E-05
 -8.66942025051724E-05 -4.03642159808275E-05 -1.00956574817226E-06
 -7.93418087164517E-03 -1.31499741891762E-04  2.39699121492851E-04
  1.87636555828084E-05 -1.65085592879509E-06  7.00374180277845E-05
  4.66619495454690E-06  2.42441853613628E-05 -5.81888249712758E-06
  7.57000719834433E-05 -4.14104916825741E-05 -6.25885846718415E-05
 -2.54184861068371E-05  1.95807296420766E-05 -9.32820053527274E-07
 Gradient of E wrt nuclear positions in reduced coordinates (gred)
 -1.52241302213379E-01 -1.70369734727531E-03  2.00370631501934E-03
  1.24519309638777E-03  8.67986572343971E-05  2.58497872877848E-04
  1.64718984759828E-03  3.81441841018820E-04  9.54039632022781E-06
  1.50749436561258E-01  1.24267256087715E-03 -2.26515669810744E-03
 -3.56509456073359E-04  1.56005885271136E-05 -6.61853600362564E-04
 -8.86577041363911E-05 -2.29107551664878E-04  5.49884395978557E-05
 -1.43830136768542E-03  3.91329146400325E-04  5.91462125148902E-04
  4.82951236029905E-04 -1.85037895117624E-04  8.81514950583274E-06
 Total energy (etotal) [Ha]= -2.94868586241248E+01

 Difference of energy with previous step (new-old):
           Absolute (Ha)=-3.63791E-08
           Relative     =-1.23374E-09

--- Iteration: (  5/500) Internal Cycle: (1/1)
--------------------------------------------------------------------------------

---SELF-CONSISTENT-FIELD CONVERGENCE--------------------------------------------

--- !BeginCycle
iteration_state: {dtset: 1, itime: 5, icycle: 1, }
solver: {iscf: 17, nstep: 50, nline: 4, wfoptalg: 114, }
tolerances: {toldff: 5.00E-07, }
...

     iter   Etot(hartree)      deltaE(h)  residm     nres2    diffor    maxfor
 ETOT  1  -29.486858922701    -2.949E+01 6.384E-09 1.893E-06 1.782E-04 2.036E-04
 ETOT  2  -29.486858956337    -3.364E-08 1.428E-09 1.809E-07 7.144E-06 1.972E-04
 ETOT  3  -29.486858955950     3.867E-10 4.148E-10 2.873E-08 3.398E-06 1.938E-04
 ETOT  4  -29.486858918717     3.723E-08 3.715E-10 3.298E-09 1.937E-06 1.938E-04
 ETOT  5  -29.486858918665     5.172E-11 9.491E-11 1.548E-09 1.320E-07 1.939E-04
 ETOT  6  -29.486858918644     2.102E-11 8.010E-11 9.055E-10 2.763E-07 1.938E-04

 At SCF step    6, forces are converged : 
  for the second time, max diff in force=  2.763E-07 < toldff=  5.000E-07

 Cartesian components of stress tensor (hartree/bohr^3)
  sigma(1 1)=  9.89026201E-05  sigma(3 2)= -3.13780803E-07
  sigma(2 2)=  3.46402558E-06  sigma(3 1)= -1.30159381E-06
  sigma(3 3)=  4.72335044E-06  sigma(2 1)=  5.07776903E-07


--- !ResultsGS
iteration_state: {dtset: 1, itime: 5, icycle: 1, }
comment   : Summary of ground state results
lattice_vectors:
- [ 19.0000000,   0.0000000,   0.0000000, ]
- [  0.0000000,   9.4500000,   0.0000000, ]
- [  0.0000000,   0.0000000,   9.4500000, ]
lattice_lengths: [  19.00000,    9.45000,    9.45000, ]
lattice_angles: [ 90.000,  90.000,  90.000, ] # degrees, (23, 13, 12)
lattice_volume:   1.6967475E+03
convergence: {deltae:  2.102E-11, res2:  9.055E-10, residm:  8.010E-11, diffor:  2.763E-07, }
etotal    :  -2.94868589E+01
entropy   :   0.00000000E+00
fermie    :  -1.70839562E-01
cartesian_stress_tensor: # hartree/bohr^3
- [  9.89026201E-05,   5.07776903E-07,  -1.30159381E-06, ]
- [  5.07776903E-07,   3.46402558E-06,  -3.13780803E-07, ]
- [ -1.30159381E-06,  -3.13780803E-07,   4.72335044E-06, ]
pressure_GPa:  -1.0502E+00
xred      :
- [  0.0000E+00,   0.0000E+00,   0.0000E+00,  O]
- [ -3.0318E-02,  -3.8088E-02,   1.8167E-01,  H]
- [ -3.2173E-02,   1.8047E-01,  -3.7654E-02,  H]
- [  3.9784E-01,   0.0000E+00,   0.0000E+00,  N]
- [  4.4635E-01,  -2.9861E-02,  -1.7940E-01,  H]
- [  4.1913E-01,  -1.5735E-01,   1.2620E-01,  H]
- [  4.3266E-01,   1.7419E-01,   8.5347E-02,  H]
- [  2.9411E-01,   1.1195E-02,  -2.7093E-02,  H]
cartesian_forces: # hartree/bohr
- [  7.98360084E-03,   1.79962098E-04,  -1.88280476E-04, ]
- [ -4.84383868E-05,  -4.50368574E-05,  -1.14722516E-05, ]
- [ -7.49993278E-05,  -5.51287808E-06,  -4.11460005E-05, ]
- [ -7.67682198E-03,  -1.39011747E-04,   2.58939305E-04, ]
- [ -1.25848388E-05,  -4.46922932E-05,   3.40009019E-06, ]
- [ -4.46424798E-06,   7.46112730E-06,   1.73726711E-05, ]
- [  2.75124867E-05,  -3.10756241E-06,  -4.79069222E-06, ]
- [ -1.93804549E-04,   4.99381119E-05,  -3.40226456E-05, ]
force_length_stats: {min:   1.94269820E-05, max:   7.98784816E-03, mean:   2.01502887E-03, }
...

 Integrated electronic density in atomic spheres:
 ------------------------------------------------
 Atom  Sphere_radius  Integrated_density
    1        1.11262          3.31791324
    2        0.79977          0.35293330
    3        0.79977          0.35214722
    4        1.11029          2.30628887
    5        0.79977          0.33447863
    6        0.79977          0.33309122
    7        0.79977          0.33587803
    8        0.79977          0.31571093

 PAW TEST:
 ==== Compensation charge inside spheres ============
 The following values must be close to each other ...
 Compensation charge over spherical meshes =      1.217843965342775
 Compensation charge over fine fft grid    =      1.217859281184559

 ==== Results concerning PAW augmentation regions ====

 Total pseudopotential strength Dij (hartree):
 Atom #  1
   1.08412   1.72586  -0.00318  -0.00321   0.00239  -0.00478  -0.00483   0.00360
   1.72586   2.74690  -0.00483  -0.00488   0.00364  -0.00729  -0.00735   0.00548
  -0.00318  -0.00483  -0.41003   0.00318   0.00202  -0.44892   0.00426   0.00270
  -0.00321  -0.00488   0.00318  -0.41012   0.00187   0.00426  -0.44904   0.00250
   0.00239   0.00364   0.00202   0.00187  -0.40497   0.00270   0.00250  -0.44214
  -0.00478  -0.00729  -0.44892   0.00426   0.00270  -0.44586   0.00569   0.00360
  -0.00483  -0.00735   0.00426  -0.44904   0.00250   0.00569  -0.44602   0.00334
   0.00360   0.00548   0.00270   0.00250  -0.44214   0.00360   0.00334  -0.43682
 Atom #  8
  -0.04817


 Augmentation waves occupancies Rhoij:
 Atom #  1
   2.29607  -0.18590   0.14606   0.14772  -0.12875  -0.09289  -0.09386   0.07731
  -0.18590   0.03158  -0.09229  -0.09320   0.07382   0.00869   0.00881  -0.00890
   0.14606  -0.09229   1.11099  -0.11220  -0.07508  -0.07369   0.08017   0.04937
   0.14772  -0.09320  -0.11220   1.11431  -0.06924   0.08017  -0.07588   0.04554
  -0.12875   0.07382  -0.07508  -0.06924   0.88851   0.04928   0.04545   0.06201
  -0.09289   0.00869  -0.07369   0.08017   0.04928   0.01591  -0.00371   0.00111
  -0.09386   0.00881   0.08017  -0.07588   0.04545  -0.00371   0.01589   0.00123
   0.07731  -0.00890   0.04937   0.04554   0.06201   0.00111   0.00123   0.01222
 Atom #  8
   1.58576



---OUTPUT-----------------------------------------------------------------------

 Cartesian coordinates (xcart) [bohr]
  0.00000000000000E+00  0.00000000000000E+00  0.00000000000000E+00
 -5.76046848586041E-01 -3.59935056052810E-01  1.71676319266190E+00
 -6.11287349939585E-01  1.70547211672996E+00 -3.55828248921041E-01
  7.55890453154257E+00  0.00000000000000E+00  0.00000000000000E+00
  8.48060310437676E+00 -2.82183769482243E-01 -1.69528606712676E+00
  7.96349762705865E+00 -1.48699366980441E+00  1.19260128052132E+00
  8.22045295507410E+00  1.64611950719091E+00  8.06525789901111E-01
  5.58813311848744E+00  1.05795272242420E-01 -2.56031660301346E-01
 Reduced coordinates (xred)
  0.00000000000000E+00  0.00000000000000E+00  0.00000000000000E+00
 -3.03182551887390E-02 -3.80883657198741E-02  1.81668062715545E-01
 -3.21730184178729E-02  1.80473239865604E-01 -3.76537829546075E-02
  3.97837080607504E-01  0.00000000000000E+00  0.00000000000000E+00
  4.46347531809303E-01 -2.98607163473273E-02 -1.79395351018705E-01
  4.19131454055718E-01 -1.57353827492530E-01  1.26201193705960E-01
  4.32655418688111E-01  1.74192540443482E-01  8.53466444339800E-02
  2.94112269394076E-01  1.11952669039598E-02 -2.70932973863858E-02
 Cartesian forces (fcart) [Ha/bohr]; max,rms= 1.93805E-04 5.59764E-05 (free atoms)
  7.98360084132925E-03  1.79962098472232E-04 -1.88280475943838E-04
 -4.84383867779119E-05 -4.50368574232248E-05 -1.14722515790744E-05
 -7.49993278177271E-05 -5.51287808055496E-06 -4.11460005012766E-05
 -7.67682197813911E-03 -1.39011746567038E-04  2.58939304553681E-04
 -1.25848387697064E-05 -4.46922932184810E-05  3.40009018738025E-06
 -4.46424798091176E-06  7.46112729637517E-06  1.73726710711383E-05
  2.75124867026811E-05 -3.10756241394492E-06 -4.79069221658494E-06
 -1.93804548546565E-04  4.99381119346359E-05 -3.40226455714257E-05
 Gradient of E wrt nuclear positions in reduced coordinates (gred)
 -1.51688415985256E-01 -1.70064183056259E-03  1.77925049766927E-03
  9.20329348780327E-04  4.25598302649474E-04  1.08412777422253E-04
  1.42498722853682E-03  5.20966978612444E-05  3.88829704737063E-04
  1.45859617584643E-01  1.31366100505850E-03 -2.44697642803229E-03
  2.39111936624421E-04  4.22342170914645E-04 -3.21308522707434E-05
  8.48207116373235E-05 -7.05076529507454E-05 -1.64171741622257E-04
 -5.22737247350940E-04  2.93664648117795E-05  4.52720414467276E-05
  3.68228642238473E-03 -4.71915157782309E-04  3.21514000649973E-04
 Total energy (etotal) [Ha]= -2.94868589186441E+01

 Difference of energy with previous step (new-old):
           Absolute (Ha)=-2.94519E-07
           Relative     =-9.98815E-09

--- Iteration: (  6/500) Internal Cycle: (1/1)
--------------------------------------------------------------------------------

---SELF-CONSISTENT-FIELD CONVERGENCE--------------------------------------------

--- !BeginCycle
iteration_state: {dtset: 1, itime: 6, icycle: 1, }
solver: {iscf: 17, nstep: 50, nline: 4, wfoptalg: 114, }
tolerances: {toldff: 5.00E-07, }
...

     iter   Etot(hartree)      deltaE(h)  residm     nres2    diffor    maxfor
 ETOT  1  -29.486858978420    -2.949E+01 6.482E-10 6.328E-07 4.982E-05 1.885E-04
 ETOT  2  -29.486859014631    -3.621E-08 1.132E-10 6.497E-08 7.861E-06 1.807E-04
 ETOT  3  -29.486859014580     5.070E-11 4.431E-11 8.081E-09 1.868E-06 1.812E-04
 ETOT  4  -29.486859014561     1.955E-11 1.971E-11 7.210E-10 6.918E-07 1.805E-04
 ETOT  5  -29.486859014562    -8.491E-13 8.891E-12 3.236E-10 1.625E-07 1.805E-04
 ETOT  6  -29.486859014566    -4.651E-12 5.736E-12 1.611E-10 7.175E-08 1.805E-04

 At SCF step    6, forces are converged : 
  for the second time, max diff in force=  7.175E-08 < toldff=  5.000E-07

 Cartesian components of stress tensor (hartree/bohr^3)
  sigma(1 1)=  9.89422575E-05  sigma(3 2)= -3.23274828E-07
  sigma(2 2)=  3.42256172E-06  sigma(3 1)= -1.29709421E-06
  sigma(3 3)=  4.65427841E-06  sigma(2 1)=  5.16599099E-07


--- !ResultsGS
iteration_state: {dtset: 1, itime: 6, icycle: 1, }
comment   : Summary of ground state results
lattice_vectors:
- [ 19.0000000,   0.0000000,   0.0000000, ]
- [  0.0000000,   9.4500000,   0.0000000, ]
- [  0.0000000,   0.0000000,   9.4500000, ]
lattice_lengths: [  19.00000,    9.45000,    9.45000, ]
lattice_angles: [ 90.000,  90.000,  90.000, ] # degrees, (23, 13, 12)
lattice_volume:   1.6967475E+03
convergence: {deltae: -4.651E-12, res2:  1.611E-10, residm:  5.736E-12, diffor:  7.175E-08, }
etotal    :  -2.94868590E+01
entropy   :   0.00000000E+00
fermie    :  -1.70829635E-01
cartesian_stress_tensor: # hartree/bohr^3
- [  9.89422575E-05,   5.16599099E-07,  -1.29709421E-06, ]
- [  5.16599099E-07,   3.42256172E-06,  -3.23274828E-07, ]
- [ -1.29709421E-06,  -3.23274828E-07,   4.65427841E-06, ]
pressure_GPa:  -1.0495E+00
xred      :
- [  0.0000E+00,   0.0000E+00,   0.0000E+00,  O]
- [ -3.0346E-02,  -3.8099E-02,   1.8165E-01,  H]
- [ -3.2211E-02,   1.8044E-01,  -3.7659E-02,  H]
- [  3.9784E-01,   0.0000E+00,   0.0000E+00,  N]
- [  4.4636E-01,  -2.9870E-02,  -1.7937E-01,  H]
- [  4.1913E-01,  -1.5734E-01,   1.2621E-01,  H]
- [  4.3269E-01,   1.7418E-01,   8.5306E-02,  H]
- [  2.9411E-01,   1.1212E-02,  -2.7091E-02,  H]
cartesian_forces: # hartree/bohr
- [  7.96657204E-03,   1.88614439E-04,  -1.75391462E-04, ]
- [ -3.83048830E-05,  -5.96468091E-05,  -9.19105228E-06, ]
- [ -6.53213153E-05,   3.09024864E-08,  -5.65878102E-05, ]
- [ -7.65550514E-03,  -1.39160989E-04,   2.65250221E-04, ]
- [ -2.04994369E-05,  -6.66852807E-05,  -4.53849428E-05, ]
- [ -1.22509947E-05,  -4.80664739E-06,   3.12962933E-05, ]
- [  5.81444953E-06,   2.41957348E-05,   2.54250797E-05, ]
- [ -1.80504724E-04,   5.74586500E-05,  -3.54163263E-05, ]
force_length_stats: {min:   3.39506805E-05, max:   7.97073445E-03, mean:   2.01693358E-03, }
...

 Integrated electronic density in atomic spheres:
 ------------------------------------------------
 Atom  Sphere_radius  Integrated_density
    1        1.11262          3.31791142
    2        0.79977          0.35269241
    3        0.79977          0.35215012
    4        1.11029          2.30631855
    5        0.79977          0.33484287
    6        0.79977          0.33309264
    7        0.79977          0.33588053
    8        0.79977          0.31570122

 PAW TEST:
 ==== Compensation charge inside spheres ============
 The following values must be close to each other ...
 Compensation charge over spherical meshes =      1.217850834118392
 Compensation charge over fine fft grid    =      1.217865999231528

 ==== Results concerning PAW augmentation regions ====

 Total pseudopotential strength Dij (hartree):
 Atom #  1
   1.08412   1.72586  -0.00318  -0.00321   0.00240  -0.00478  -0.00482   0.00360
   1.72586   2.74690  -0.00483  -0.00488   0.00364  -0.00728  -0.00735   0.00549
  -0.00318  -0.00483  -0.41002   0.00318   0.00202  -0.44891   0.00426   0.00270
  -0.00321  -0.00488   0.00318  -0.41011   0.00187   0.00426  -0.44903   0.00250
   0.00240   0.00364   0.00202   0.00187  -0.40497   0.00270   0.00250  -0.44214
  -0.00478  -0.00728  -0.44891   0.00426   0.00270  -0.44586   0.00569   0.00361
  -0.00482  -0.00735   0.00426  -0.44903   0.00250   0.00569  -0.44602   0.00334
   0.00360   0.00549   0.00270   0.00250  -0.44214   0.00361   0.00334  -0.43682
 Atom #  8
  -0.04817


 Augmentation waves occupancies Rhoij:
 Atom #  1
   2.29607  -0.18589   0.14601   0.14769  -0.12888  -0.09286  -0.09384   0.07740
  -0.18589   0.03158  -0.09227  -0.09318   0.07391   0.00869   0.00881  -0.00891
   0.14601  -0.09227   1.11092  -0.11221  -0.07515  -0.07364   0.08018   0.04942
   0.14769  -0.09318  -0.11221   1.11425  -0.06928   0.08018  -0.07585   0.04557
  -0.12888   0.07391  -0.07515  -0.06928   0.88865   0.04933   0.04547   0.06192
  -0.09286   0.00869  -0.07364   0.08018   0.04933   0.01590  -0.00370   0.00111
  -0.09384   0.00881   0.08018  -0.07585   0.04547  -0.00370   0.01589   0.00123
   0.07740  -0.00891   0.04942   0.04557   0.06192   0.00111   0.00123   0.01222
 Atom #  8
   1.58569



---OUTPUT-----------------------------------------------------------------------

 Cartesian coordinates (xcart) [bohr]
  0.00000000000000E+00  0.00000000000000E+00  0.00000000000000E+00
 -5.76578569039348E-01 -3.60040136564701E-01  1.71656898200365E+00
 -6.12004811200354E-01  1.70520511747297E+00 -3.55873557984807E-01
  7.55890453154257E+00  0.00000000000000E+00  0.00000000000000E+00
  8.48086746458036E+00 -2.82270381126441E-01 -1.69502718869703E+00
  7.96353969466854E+00 -1.48690036003787E+00  1.19264537414408E+00
  8.22109835495440E+00  1.64598241579485E+00  8.06137561184800E-01
  5.58812365835886E+00  1.05955144447342E-01 -2.56012955361526E-01
 Reduced coordinates (xred)
  0.00000000000000E+00  0.00000000000000E+00  0.00000000000000E+00
 -3.03462404757551E-02 -3.80994853507620E-02  1.81647511323137E-01
 -3.22107795368607E-02  1.80444985975976E-01 -3.76585775645299E-02
  3.97837080607504E-01  0.00000000000000E+00  0.00000000000000E+00
  4.46361445504229E-01 -2.98698816006816E-02 -1.79367956475877E-01
  4.19133668140450E-01 -1.57343953443161E-01  1.26205859697786E-01
  4.32689387102863E-01  1.74178033417445E-01  8.53055620301375E-02
  2.94111771492571E-01  1.12121845976024E-02 -2.70913180276747E-02
 Cartesian forces (fcart) [Ha/bohr]; max,rms= 1.80505E-04 5.72817E-05 (free atoms)
  7.96657204032911E-03  1.88614438727426E-04 -1.75391462198683E-04
 -3.83048830344504E-05 -5.96468090738953E-05 -9.19105228064442E-06
 -6.53213153038614E-05  3.09024864191448E-08 -5.65878101573182E-05
 -7.65550513621649E-03 -1.39160988851197E-04  2.65250220803747E-04
 -2.04994369191394E-05 -6.66852806980452E-05 -4.53849428161248E-05
 -1.22509947490111E-05 -4.80664738700177E-06  3.12962932618537E-05
  5.81444953142985E-06  2.41957348414697E-05  2.54250796642070E-05
 -1.80504723637582E-04  5.74586499548254E-05 -3.54163262770375E-05
 Gradient of E wrt nuclear positions in reduced coordinates (gred)
 -1.51364868766253E-01 -1.78240644597417E-03  1.65744931777755E-03
  7.27792777654557E-04  5.63662345748311E-04  8.68554440520898E-05
  1.24110499077337E-03 -2.92028496660919E-07  5.34754805986657E-04
  1.45454597588113E-01  1.31507134464382E-03 -2.50661458659541E-03
  3.89489301463649E-04  6.30175902596527E-04  4.28887709612379E-04
  2.32768900231211E-04  4.54228178071667E-05 -2.95749971324518E-04
 -1.10474541097167E-04 -2.28649694251888E-04 -2.40267002826756E-04
  3.42958974911406E-03 -5.42984242073100E-04  3.34684283318004E-04
 Total energy (etotal) [Ha]= -2.94868590145662E+01

 Difference of energy with previous step (new-old):
           Absolute (Ha)=-9.59221E-08
           Relative     =-3.25304E-09

--- Iteration: (  7/500) Internal Cycle: (1/1)
--------------------------------------------------------------------------------

---SELF-CONSISTENT-FIELD CONVERGENCE--------------------------------------------

--- !BeginCycle
iteration_state: {dtset: 1, itime: 7, icycle: 1, }
solver: {iscf: 17, nstep: 50, nline: 4, wfoptalg: 114, }
tolerances: {toldff: 5.00E-07, }
...

     iter   Etot(hartree)      deltaE(h)  residm     nres2    diffor    maxfor
 ETOT  1  -29.486859137073    -2.949E+01 1.675E-10 8.262E-07 9.298E-05 9.627E-05
 ETOT  2  -29.486859135815     1.258E-09 7.019E-11 1.220E-07 1.024E-05 8.930E-05
 ETOT  3  -29.486859135665     1.506E-10 5.454E-11 1.153E-08 2.439E-06 9.174E-05
 ETOT  4  -29.486859135661     3.915E-12 1.582E-11 1.729E-09 1.012E-06 9.176E-05
 ETOT  5  -29.486859135664    -3.169E-12 2.015E-11 4.321E-10 3.004E-07 9.175E-05
 ETOT  6  -29.486859135670    -6.285E-12 5.260E-12 1.590E-10 1.492E-07 9.188E-05

 At SCF step    6, forces are converged : 
  for the second time, max diff in force=  1.492E-07 < toldff=  5.000E-07

 Cartesian components of stress tensor (hartree/bohr^3)
  sigma(1 1)=  9.90992116E-05  sigma(3 2)= -3.38404926E-07
  sigma(2 2)=  3.40068817E-06  sigma(3 1)= -1.28034077E-06
  sigma(3 3)=  4.59578275E-06  sigma(2 1)=  5.14910452E-07


--- !ResultsGS
iteration_state: {dtset: 1, itime: 7, icycle: 1, }
comment   : Summary of ground state results
lattice_vectors:
- [ 19.0000000,   0.0000000,   0.0000000, ]
- [  0.0000000,   9.4500000,   0.0000000, ]
- [  0.0000000,   0.0000000,   9.4500000, ]
lattice_lengths: [  19.00000,    9.45000,    9.45000, ]
lattice_angles: [ 90.000,  90.000,  90.000, ] # degrees, (23, 13, 12)
lattice_volume:   1.6967475E+03
convergence: {deltae: -6.285E-12, res2:  1.590E-10, residm:  5.260E-12, diffor:  1.492E-07, }
etotal    :  -2.94868591E+01
entropy   :   0.00000000E+00
fermie    :  -1.70814604E-01
cartesian_stress_tensor: # hartree/bohr^3
- [  9.90992116E-05,   5.14910452E-07,  -1.28034077E-06, ]
- [  5.14910452E-07,   3.40068817E-06,  -3.38404926E-07, ]
- [ -1.28034077E-06,  -3.38404926E-07,   4.59578275E-06, ]
pressure_GPa:  -1.0503E+00
xred      :
- [  0.0000E+00,   0.0000E+00,   0.0000E+00,  O]
- [ -3.0388E-02,  -3.8125E-02,   1.8162E-01,  H]
- [ -3.2268E-02,   1.8040E-01,  -3.7674E-02,  H]
- [  3.9784E-01,   0.0000E+00,   0.0000E+00,  N]
- [  4.4638E-01,  -2.9894E-02,  -1.7934E-01,  H]
- [  4.1914E-01,  -1.5733E-01,   1.2622E-01,  H]
- [  4.3274E-01,   1.7416E-01,   8.5253E-02,  H]
- [  2.9410E-01,   1.1245E-02,  -2.7094E-02,  H]
cartesian_forces: # hartree/bohr
- [  7.93730109E-03,   2.13015273E-04,  -1.57496210E-04, ]
- [ -2.29416191E-05,  -7.31236341E-05,  -1.52692304E-05, ]
- [ -4.67315736E-05,  -1.14226750E-05,  -6.92779440E-05, ]
- [ -7.69478658E-03,  -1.31357184E-04,   2.59070225E-04, ]
- [ -3.87990026E-05,  -8.93366506E-05,  -9.18834353E-05, ]
- [ -2.87878224E-05,  -1.41958052E-05,   4.31729561E-05, ]
- [ -2.70114594E-05,   4.69540993E-05,   5.47004998E-05, ]
- [ -7.82430261E-05,   5.94665765E-05,  -2.30168612E-05, ]
force_length_stats: {min:   5.37974325E-05, max:   7.94172079E-03, mean:   2.02126136E-03, }
...

 Integrated electronic density in atomic spheres:
 ------------------------------------------------
 Atom  Sphere_radius  Integrated_density
    1        1.11262          3.31789575
    2        0.79977          0.35244877
    3        0.79977          0.35188787
    4        1.11029          2.30629683
    5        0.79977          0.33629024
    6        0.79977          0.33309508
    7        0.79977          0.33604222
    8        0.79977          0.31597553

 PAW TEST:
 ==== Compensation charge inside spheres ============
 The following values must be close to each other ...
 Compensation charge over spherical meshes =      1.217832935650133
 Compensation charge over fine fft grid    =      1.217848113695128

 ==== Results concerning PAW augmentation regions ====

 Total pseudopotential strength Dij (hartree):
 Atom #  1
   1.08412   1.72586  -0.00317  -0.00320   0.00240  -0.00478  -0.00482   0.00361
   1.72586   2.74690  -0.00483  -0.00487   0.00365  -0.00728  -0.00735   0.00550
  -0.00317  -0.00483  -0.41002   0.00319   0.00202  -0.44890   0.00427   0.00271
  -0.00320  -0.00487   0.00319  -0.41011   0.00187   0.00427  -0.44903   0.00251
   0.00240   0.00365   0.00202   0.00187  -0.40497   0.00271   0.00251  -0.44215
  -0.00478  -0.00728  -0.44890   0.00427   0.00271  -0.44585   0.00569   0.00361
  -0.00482  -0.00735   0.00427  -0.44903   0.00251   0.00569  -0.44601   0.00334
   0.00361   0.00550   0.00271   0.00251  -0.44215   0.00361   0.00334  -0.43683
 Atom #  8
  -0.04817


 Augmentation waves occupancies Rhoij:
 Atom #  1
   2.29604  -0.18588   0.14593   0.14763  -0.12908  -0.09281  -0.09381   0.07752
  -0.18588   0.03158  -0.09222  -0.09315   0.07404   0.00869   0.00881  -0.00892
   0.14593  -0.09222   1.11078  -0.11224  -0.07525  -0.07356   0.08020   0.04948
   0.14763  -0.09315  -0.11224   1.11414  -0.06933   0.08020  -0.07579   0.04561
  -0.12908   0.07404  -0.07525  -0.06933   0.88884   0.04940   0.04551   0.06179
  -0.09281   0.00869  -0.07356   0.08020   0.04940   0.01590  -0.00370   0.00111
  -0.09381   0.00881   0.08020  -0.07579   0.04551  -0.00370   0.01589   0.00123
   0.07752  -0.00892   0.04948   0.04561   0.06179   0.00111   0.00123   0.01222
 Atom #  8
   1.58519



---OUTPUT-----------------------------------------------------------------------

 Cartesian coordinates (xcart) [bohr]
  0.00000000000000E+00  0.00000000000000E+00  0.00000000000000E+00
 -5.77370280868048E-01 -3.60277539976815E-01  1.71628085841136E+00
 -6.13093017115219E-01  1.70482481185406E+00 -3.56022363965127E-01
  7.55890453154257E+00  0.00000000000000E+00  0.00000000000000E+00
  8.48119380151878E+00 -2.82493680697569E-01 -1.69473416607178E+00
  7.96357472461785E+00 -1.48677516827505E+00  1.19275218576457E+00
  8.22199317207507E+00  1.64582478139373E+00  8.05638404085958E-01
  5.58787047803877E+00  1.06263383590648E-01 -2.56036283810249E-01
 Reduced coordinates (xred)
  0.00000000000000E+00  0.00000000000000E+00  0.00000000000000E+00
 -3.03879095193709E-02 -3.81246074049540E-02  1.81617022054112E-01
 -3.22680535323800E-02  1.80404741995138E-01 -3.76743242291139E-02
  3.97837080607504E-01  0.00000000000000E+00  0.00000000000000E+00
  4.46378621132568E-01 -2.98935111849279E-02 -1.79336948790665E-01
  4.19135511821992E-01 -1.57330705637571E-01  1.26217162514770E-01
  4.32736482740793E-01  1.74161352528437E-01  8.52527411731172E-02
  2.94098446212567E-01  1.12448024963649E-02 -2.70937866465872E-02
 Cartesian forces (fcart) [Ha/bohr]; max,rms= 9.18834E-05 5.27878E-05 (free atoms)
  7.93730108759268E-03  2.13015273213085E-04 -1.57496210429561E-04
 -2.29416191225825E-05 -7.31236340933284E-05 -1.52692304014036E-05
 -4.67315735554463E-05 -1.14226750316463E-05 -6.92779440379090E-05
 -7.69478658428719E-03 -1.31357184095189E-04  2.59070225474411E-04
 -3.87990026224342E-05 -8.93366506157439E-05 -9.18834353296761E-05
 -2.87878224337429E-05 -1.41958052208588E-05  4.31729560897499E-05
 -2.70114594405761E-05  4.69540993326589E-05  5.47004998112954E-05
 -7.82430261307055E-05  5.94665765110221E-05 -2.30168611769061E-05
 Gradient of E wrt nuclear positions in reduced coordinates (gred)
 -1.50808720664261E-01 -2.01299433186365E-03  1.48833918855935E-03
  4.35890763329068E-04  6.91018342181953E-04  1.44294227293264E-04
  8.87899897553480E-04  1.07944279049057E-04  6.54676571158240E-04
  1.46200945101457E-01  1.24132538969953E-03 -2.44821363073318E-03
  7.37181049826250E-04  8.44231348318779E-04  8.68298463865439E-04
  5.46968626241116E-04  1.34150359337116E-04 -4.07984435048137E-04
  5.13217729370946E-04 -4.43716238693627E-04 -5.16919723216742E-04
  1.48661749648341E-03 -5.61959148029159E-04  2.17509338121762E-04
 Total energy (etotal) [Ha]= -2.94868591356704E+01

 Difference of energy with previous step (new-old):
           Absolute (Ha)=-1.21104E-07
           Relative     =-4.10706E-09

--- Iteration: (  8/500) Internal Cycle: (1/1)
--------------------------------------------------------------------------------

---SELF-CONSISTENT-FIELD CONVERGENCE--------------------------------------------

--- !BeginCycle
iteration_state: {dtset: 1, itime: 8, icycle: 1, }
solver: {iscf: 17, nstep: 50, nline: 4, wfoptalg: 114, }
tolerances: {toldff: 5.00E-07, }
...

     iter   Etot(hartree)      deltaE(h)  residm     nres2    diffor    maxfor
 ETOT  1  -29.486859147428    -2.949E+01 2.195E-11 5.968E-07 1.023E-04 9.195E-05
 ETOT  2  -29.486859146686     7.421E-10 1.788E-12 8.390E-08 7.647E-06 9.104E-05
 ETOT  3  -29.486859183742    -3.706E-08 1.015E-12 7.206E-09 2.085E-06 9.154E-05
 ETOT  4  -29.486859183804    -6.161E-11 4.672E-13 5.089E-10 3.269E-07 9.173E-05
 ETOT  5  -29.486859183840    -3.606E-11 1.013E-12 2.277E-10 1.596E-07 9.182E-05

 At SCF step    5, forces are converged : 
  for the second time, max diff in force=  1.596E-07 < toldff=  5.000E-07

 Cartesian components of stress tensor (hartree/bohr^3)
  sigma(1 1)=  9.92615882E-05  sigma(3 2)= -3.43728833E-07
  sigma(2 2)=  3.43791593E-06  sigma(3 1)= -1.27047375E-06
  sigma(3 3)=  4.62157575E-06  sigma(2 1)=  5.04518658E-07


--- !ResultsGS
iteration_state: {dtset: 1, itime: 8, icycle: 1, }
comment   : Summary of ground state results
lattice_vectors:
- [ 19.0000000,   0.0000000,   0.0000000, ]
- [  0.0000000,   9.4500000,   0.0000000, ]
- [  0.0000000,   0.0000000,   9.4500000, ]
lattice_lengths: [  19.00000,    9.45000,    9.45000, ]
lattice_angles: [ 90.000,  90.000,  90.000, ] # degrees, (23, 13, 12)
lattice_volume:   1.6967475E+03
convergence: {deltae: -3.606E-11, res2:  2.277E-10, residm:  1.013E-12, diffor:  1.596E-07, }
etotal    :  -2.94868592E+01
entropy   :   0.00000000E+00
fermie    :  -1.70805391E-01
cartesian_stress_tensor: # hartree/bohr^3
- [  9.92615882E-05,   5.04518658E-07,  -1.27047375E-06, ]
- [  5.04518658E-07,   3.43791593E-06,  -3.43728833E-07, ]
- [ -1.27047375E-06,  -3.43728833E-07,   4.62157575E-06, ]
pressure_GPa:  -1.0525E+00
xred      :
- [  0.0000E+00,   0.0000E+00,   0.0000E+00,  O]
- [ -3.0418E-02,  -3.8153E-02,   1.8159E-01,  H]
- [ -3.2310E-02,   1.8038E-01,  -3.7695E-02,  H]
- [  3.9784E-01,   0.0000E+00,   0.0000E+00,  N]
- [  4.4639E-01,  -2.9923E-02,  -1.7933E-01,  H]
- [  4.1913E-01,  -1.5732E-01,   1.2623E-01,  H]
- [  4.3277E-01,   1.7416E-01,   8.5225E-02,  H]
- [  2.9408E-01,   1.1276E-02,  -2.7099E-02,  H]
cartesian_forces: # hartree/bohr
- [  7.91651443E-03,   2.34874300E-04,  -1.48355877E-04, ]
- [ -1.30901895E-05,  -7.48733756E-05,  -2.51895118E-05, ]
- [ -3.19987066E-05,  -3.17284812E-05,  -6.90693807E-05, ]
- [ -7.73988878E-03,  -1.19180697E-04,   2.38816681E-04, ]
- [ -6.40958850E-05,  -9.18204060E-05,  -8.24460530E-05, ]
- [ -4.50870601E-05,  -7.46151490E-06,   3.86450235E-05, ]
- [ -5.14982976E-05,   3.61848386E-05,   5.42408044E-05, ]
- [  2.91444895E-05,   5.40053364E-05,  -6.64168621E-06, ]
force_length_stats: {min:   5.98494364E-05, max:   7.92138726E-03, mean:   2.02151737E-03, }
...

 Integrated electronic density in atomic spheres:
 ------------------------------------------------
 Atom  Sphere_radius  Integrated_density
    1        1.11262          3.31787881
    2        0.79977          0.35245164
    3        0.79977          0.35032231
    4        1.11029          2.30622495
    5        0.79977          0.33629250
    6        0.79977          0.33309610
    7        0.79977          0.33604260
    8        0.79977          0.31463063

 PAW TEST:
 ==== Compensation charge inside spheres ============
 The following values must be close to each other ...
 Compensation charge over spherical meshes =      1.217799791909532
 Compensation charge over fine fft grid    =      1.217814807640758

 ==== Results concerning PAW augmentation regions ====

 Total pseudopotential strength Dij (hartree):
 Atom #  1
   1.08412   1.72586  -0.00317  -0.00320   0.00240  -0.00477  -0.00482   0.00361
   1.72586   2.74690  -0.00483  -0.00487   0.00365  -0.00728  -0.00735   0.00550
  -0.00317  -0.00483  -0.41001   0.00319   0.00202  -0.44890   0.00427   0.00271
  -0.00320  -0.00487   0.00319  -0.41011   0.00187   0.00427  -0.44902   0.00251
   0.00240   0.00365   0.00202   0.00187  -0.40497   0.00271   0.00251  -0.44215
  -0.00477  -0.00728  -0.44890   0.00427   0.00271  -0.44584   0.00570   0.00362
  -0.00482  -0.00735   0.00427  -0.44902   0.00251   0.00570  -0.44600   0.00335
   0.00361   0.00550   0.00271   0.00251  -0.44215   0.00362   0.00335  -0.43683
 Atom #  8
  -0.04817


 Augmentation waves occupancies Rhoij:
 Atom #  1
   2.29601  -0.18587   0.14585   0.14758  -0.12921  -0.09276  -0.09377   0.07761
  -0.18587   0.03158  -0.09217  -0.09312   0.07413   0.00869   0.00881  -0.00893
   0.14585  -0.09217   1.11067  -0.11228  -0.07531  -0.07350   0.08023   0.04953
   0.14758  -0.09312  -0.11228   1.11406  -0.06937   0.08024  -0.07574   0.04563
  -0.12921   0.07413  -0.07531  -0.06937   0.88898   0.04944   0.04554   0.06170
  -0.09276   0.00869  -0.07350   0.08024   0.04944   0.01590  -0.00369   0.00111
  -0.09377   0.00881   0.08023  -0.07574   0.04554  -0.00369   0.01589   0.00123
   0.07761  -0.00893   0.04953   0.04563   0.06170   0.00111   0.00123   0.01222
 Atom #  8
   1.58468



---OUTPUT-----------------------------------------------------------------------

 Cartesian coordinates (xcart) [bohr]
  0.00000000000000E+00  0.00000000000000E+00  0.00000000000000E+00
 -5.77936345193575E-01 -3.60541447305115E-01  1.71606336676869E+00
 -6.13892295603003E-01  1.70454907359627E+00 -3.56220746221113E-01
  7.55890453154257E+00  0.00000000000000E+00  0.00000000000000E+00
  8.48135457621299E+00 -2.82770545700941E-01 -1.69466096764276E+00
  7.96355609805182E+00 -1.48670857388348E+00  1.19288386055478E+00
  8.22255578714856E+00  1.64578084380618E+00  8.05377533412055E-01
  5.58759198928429E+00  1.06555743125561E-01 -2.56084110773382E-01
 Reduced coordinates (xred)
  0.00000000000000E+00  0.00000000000000E+00  0.00000000000000E+00
 -3.04177023786092E-02 -3.81525341063614E-02  1.81594007065470E-01
 -3.23101208212107E-02  1.80375563343520E-01 -3.76953170604353E-02
  3.97837080607504E-01  0.00000000000000E+00  0.00000000000000E+00
  4.46387082958578E-01 -2.99228090688827E-02 -1.79329202925160E-01
  4.19134531476411E-01 -1.57323658612008E-01  1.26231096355003E-01
  4.32766094060451E-01  1.74156703048273E-01  8.52251358107995E-02
  2.94083788909700E-01  1.12757400132868E-02 -2.70988477008870E-02
 Cartesian forces (fcart) [Ha/bohr]; max,rms= 9.18204E-05 5.10148E-05 (free atoms)
  7.91651443061904E-03  2.34874299812849E-04 -1.48355877379442E-04
 -1.30901895144114E-05 -7.48733756302990E-05 -2.51895117508411E-05
 -3.19987066147460E-05 -3.17284812498548E-05 -6.90693806659839E-05
 -7.73988878131252E-03 -1.19180697071735E-04  2.38816681026570E-04
 -6.40958849633921E-05 -9.18204059579657E-05 -8.24460529714509E-05
 -4.50870601429746E-05 -7.46151489502077E-06  3.86450235289335E-05
 -5.14982975694354E-05  3.61848386001289E-05  5.42408044240989E-05
  2.91444894984406E-05  5.40053363918980E-05 -6.64168621188438E-06
 Gradient of E wrt nuclear positions in reduced coordinates (gred)
 -1.50413774181762E-01 -2.21956213323142E-03  1.40196304123572E-03
  2.48713600773816E-04  7.07553399706325E-04  2.38040886045449E-04
  6.07975425680173E-04  2.99834147811128E-04  6.52705647293548E-04
  1.47057886844938E-01  1.12625758732790E-03 -2.25681763570108E-03
  1.21782181430445E-03  8.67702836302776E-04  7.79115200580211E-04
  8.56654142716518E-04  7.05113157579463E-05 -3.65195472348421E-04
  9.78467653819273E-04 -3.41946724771218E-04 -5.12575601807734E-04
 -5.53745300470372E-04 -5.10350428903436E-04  6.27639347023074E-05
 Total energy (etotal) [Ha]= -2.94868591838398E+01

 Difference of energy with previous step (new-old):
           Absolute (Ha)=-4.81694E-08
           Relative     =-1.63359E-09

--- Iteration: (  9/500) Internal Cycle: (1/1)
--------------------------------------------------------------------------------

---SELF-CONSISTENT-FIELD CONVERGENCE--------------------------------------------

--- !BeginCycle
iteration_state: {dtset: 1, itime: 9, icycle: 1, }
solver: {iscf: 17, nstep: 50, nline: 4, wfoptalg: 114, }
tolerances: {toldff: 5.00E-07, }
...

     iter   Etot(hartree)      deltaE(h)  residm     nres2    diffor    maxfor
 ETOT  1  -29.486859290993    -2.949E+01 6.699E-11 4.551E-07 1.153E-04 1.445E-04
 ETOT  2  -29.486859253654     3.734E-08 9.727E-12 5.610E-08 4.028E-06 1.444E-04
 ETOT  3  -29.486859253693    -3.907E-11 1.464E-12 1.092E-08 1.700E-06 1.430E-04
 ETOT  4  -29.486859253730    -3.781E-11 1.588E-12 1.209E-09 9.759E-07 1.432E-04
 ETOT  5  -29.486859253791    -6.020E-11 6.576E-13 5.365E-10 1.753E-07 1.433E-04
 ETOT  6  -29.486859253875    -8.396E-11 7.298E-13 2.300E-10 2.597E-07 1.434E-04

 At SCF step    6, forces are converged : 
  for the second time, max diff in force=  2.597E-07 < toldff=  5.000E-07

 Cartesian components of stress tensor (hartree/bohr^3)
  sigma(1 1)=  9.94354971E-05  sigma(3 2)= -3.40679910E-07
  sigma(2 2)=  3.51235380E-06  sigma(3 1)= -1.26508415E-06
  sigma(3 3)=  4.70392787E-06  sigma(2 1)=  4.87777216E-07


--- !ResultsGS
iteration_state: {dtset: 1, itime: 9, icycle: 1, }
comment   : Summary of ground state results
lattice_vectors:
- [ 19.0000000,   0.0000000,   0.0000000, ]
- [  0.0000000,   9.4500000,   0.0000000, ]
- [  0.0000000,   0.0000000,   9.4500000, ]
lattice_lengths: [  19.00000,    9.45000,    9.45000, ]
lattice_angles: [ 90.000,  90.000,  90.000, ] # degrees, (23, 13, 12)
lattice_volume:   1.6967475E+03
convergence: {deltae: -8.396E-11, res2:  2.300E-10, residm:  7.298E-13, diffor:  2.597E-07, }
etotal    :  -2.94868593E+01
entropy   :   0.00000000E+00
fermie    :  -1.70791772E-01
cartesian_stress_tensor: # hartree/bohr^3
- [  9.94354971E-05,   4.87777216E-07,  -1.26508415E-06, ]
- [  4.87777216E-07,   3.51235380E-06,  -3.40679910E-07, ]
- [ -1.26508415E-06,  -3.40679910E-07,   4.70392787E-06, ]
pressure_GPa:  -1.0557E+00
[...]
 Atom #  1
   1.08409   1.72582  -0.00314  -0.00317   0.00248  -0.00472  -0.00478   0.00372
   1.72582   2.74683  -0.00477  -0.00483   0.00376  -0.00719  -0.00728   0.00567
  -0.00314  -0.00477  -0.40988   0.00324   0.00206  -0.44872   0.00434   0.00276
  -0.00317  -0.00483   0.00324  -0.40999   0.00189   0.00434  -0.44886   0.00253
   0.00248   0.00376   0.00206   0.00189  -0.40498   0.00276   0.00253  -0.44216
  -0.00472  -0.00719  -0.44872   0.00434   0.00276  -0.44560   0.00579   0.00368
  -0.00478  -0.00728   0.00434  -0.44886   0.00253   0.00579  -0.44579   0.00337
   0.00372   0.00567   0.00276   0.00253  -0.44216   0.00368   0.00337  -0.43684
 Atom #  8
  -0.04817


 Augmentation waves occupancies Rhoij:
 Atom #  1
   2.29627  -0.18606   0.14403   0.14618  -0.13251  -0.09164  -0.09291   0.07969
  -0.18606   0.03156  -0.09105  -0.09224   0.07621   0.00856   0.00872  -0.00912
   0.14403  -0.09105   1.10904  -0.11426  -0.07669  -0.07233   0.08157   0.05046
   0.14618  -0.09224  -0.11426   1.11290  -0.06991   0.08157  -0.07489   0.04600
  -0.13251   0.07621  -0.07669  -0.06991   0.89242   0.05038   0.04591   0.05953
  -0.09164   0.00856  -0.07233   0.08157   0.05038   0.01597  -0.00370   0.00112
  -0.09291   0.00872   0.08157  -0.07489   0.04591  -0.00370   0.01595   0.00126
   0.07969  -0.00912   0.05046   0.04600   0.05953   0.00112   0.00126   0.01217
 Atom #  8
   1.58482



---OUTPUT-----------------------------------------------------------------------

 Cartesian coordinates (xcart) [bohr]
  0.00000000000000E+00  0.00000000000000E+00  0.00000000000000E+00
 -5.89914826584363E-01 -3.69484302740747E-01  1.70993308159991E+00
 -6.31462177004621E-01  1.69647064483576E+00 -3.63402647795660E-01
  7.55890453154257E+00  0.00000000000000E+00  0.00000000000000E+00
  8.47755158627553E+00 -2.92869889674181E-01 -1.69495641494209E+00
  7.95559134591850E+00 -1.48518446261884E+00  1.19746604387963E+00
  8.22948557280734E+00  1.64540409910702E+00  8.00487248887256E-01
  5.58796603246893E+00  1.14380617659031E-01 -2.55240071514138E-01
 Reduced coordinates (xred)
  0.00000000000000E+00  0.00000000000000E+00  0.00000000000000E+00
 -3.10481487675981E-02 -3.90988680148939E-02  1.80945299640202E-01
 -3.32348514212959E-02  1.79520703157223E-01 -3.84553066450434E-02
  3.97837080607504E-01  0.00000000000000E+00  0.00000000000000E+00
  4.46186925593449E-01 -3.09915227168446E-02 -1.79360467189639E-01
  4.18715333995710E-01 -1.57162376996702E-01  1.26715983479326E-01
  4.33130819621439E-01  1.74116835884341E-01  8.47076453848949E-02
  2.94103475393101E-01  1.21037690644477E-02 -2.70095313771574E-02
 Cartesian forces (fcart) [Ha/bohr]; max,rms= 4.88065E-05 2.06253E-05 (free atoms)
  7.88215211398405E-03  1.02749744428474E-04 -2.76755461099882E-04
  1.64330762219697E-05  1.81839124091655E-05  3.21179126359322E-06
  2.72585246449042E-05 -1.76327247032720E-07  1.89806917506150E-05
 -7.96427407619100E-03 -1.23317483461259E-04  2.78951892392169E-04
  2.56048172824538E-06 -4.88064611695521E-05 -2.19691315846925E-05
  5.43527441897040E-06  8.71427183196437E-06  1.26345952787019E-05
  2.98432647327534E-05  1.91713840298370E-06  8.15201628935239E-07
  5.91340460110471E-07  4.07352048052564E-05 -1.58695796294395E-05
 Gradient of E wrt nuclear positions in reduced coordinates (gred)
 -1.49760890165697E-01 -9.70985084849076E-04  2.61533910739389E-03
 -3.12228448217424E-04 -1.71837972266614E-04 -3.03514274409560E-05
 -5.17911968253181E-04  1.66629248445920E-06 -1.79367537043312E-04
  1.51321207447629E-01  1.16535021870890E-03 -2.63609538310600E-03
 -4.86491528366622E-05  4.61221058052267E-04  2.07608293475344E-04
 -1.03270213960438E-04 -8.23498688120633E-05 -1.19396925383733E-04
 -5.67022029922315E-04 -1.81169579081959E-05 -7.70365539343801E-06
 -1.12354687420990E-05 -3.84947685409673E-04  1.49967527498203E-04
 Total energy (etotal) [Ha]= -2.94868611272928E+01

 Difference of energy with previous step (new-old):
           Absolute (Ha)=-6.60594E-08
           Relative     =-2.24030E-09

 At Broyd/MD step  19, gradients are converged : 
  max grad (force/stress) = 4.8806E-05 < tolmxf= 5.0000E-05 ha/bohr (free atoms)

================================================================================

 ----iterations are completed or convergence reached----

 Mean square residual over all n,k,spin=   97.636E-14; max=  96.569E-13
 reduced coordinates (array xred) for    8 atoms
       0.000000000000      0.000000000000      0.000000000000
      -0.031048148768     -0.039098868015      0.180945299640
      -0.033234851421      0.179520703157     -0.038455306645
       0.397837080608      0.000000000000      0.000000000000
       0.446186925593     -0.030991522717     -0.179360467190
       0.418715333996     -0.157162376997      0.126715983479
       0.433130819621      0.174116835884      0.084707645385
       0.294103475393      0.012103769064     -0.027009531377
 rms dE/dt=  4.3466E-02; max dE/dt=  1.5123E-01; dE/dt below (all hartree)
    1      -0.149849689523     -0.000929349136      0.002684545352
    2      -0.000401027805     -0.000130202023      0.000038854817
    3      -0.000606711325      0.000043302242     -0.000110161293
    4       0.151232408090      0.001206986168     -0.002566889139
    5      -0.000137448510      0.000502857007      0.000276814538
    6      -0.000192069571     -0.000040713920     -0.000050190681
    7      -0.000655821387      0.000023518991      0.000061502589
    8      -0.000100034826     -0.000343311736      0.000219173772

 cartesian coordinates (angstrom) at end:
    1      0.00000000000000     0.00000000000000     0.00000000000000
    2     -0.31216948239046    -0.19552267266414     0.90485761833795
    3     -0.33415539339135     0.89773360360397    -0.19230439946481
    4      4.00000001477010     0.00000000000000     0.00000000000000
    5      4.48612710066815    -0.15498007127011    -0.89693230765271
    6      4.20991763666114    -0.78592577107193     0.63367174082138
    7      4.35485621963028     0.87071035138312     0.42359960944220
    8      2.95702427767653     0.06052761619311    -0.13506722906290

 cartesian forces (hartree/bohr) at end:
    1      0.00788215211398     0.00010274974443    -0.00027675546110
    2      0.00001643307622     0.00001818391241     0.00000321179126
    3      0.00002725852464    -0.00000017632725     0.00001898069175
    4     -0.00796427407619    -0.00012331748346     0.00027895189239
    5      0.00000256048173    -0.00004880646117    -0.00002196913158
    6      0.00000543527442     0.00000871427183     0.00001263459528
    7      0.00002984326473     0.00000191713840     0.00000081520163
    8      0.00000059134046     0.00004073520481    -0.00001586957963
 frms,max,avg= 2.0625274E-05 4.8806461E-05   4.674E-06 -4.406E-06 -7.323E-06 h/b

 cartesian forces (eV/Angstrom) at end:
    1      0.40531655813882     0.00528360429476    -0.01423133800477
    2      0.00084502275490     0.00093505437152     0.00016515694719
    3      0.00140168969455    -0.00000906711160     0.00097602641261
    4     -0.40953943922358    -0.00634123995986     0.01434428304297
    5      0.00013166526429    -0.00250972914124    -0.00112969816751
    6      0.00027949304811     0.00044810587445     0.00064969701140
    7      0.00153460237384     0.00009858322039     0.00004191935320
    8      0.00003040794906     0.00209468845158    -0.00081604659508
 frms,max,avg= 1.0605943E-03 2.5097291E-03   2.403E-04 -2.266E-04 -3.766E-04 e/A
 length scales= 19.000000000000  9.450000000000  9.450000000000 bohr
              = 10.054367000336  5.000724639641  5.000724639641 angstroms
 prteigrs : about to open file timages_02_MPI1o_EIG
 Fermi (or HOMO) energy (hartree) =  -0.17045   Average Vxc (hartree)=  -0.10954
 Eigenvalues (hartree) for nkpt=   1  k points:
 kpt#   1, nband= 10, wtk=  1.00000, kpt=  0.0000  0.0000  0.0000 (reduced coord)
  -0.92534   -0.81787   -0.54098   -0.54036   -0.53179   -0.37487   -0.24128   -0.17045
  -0.08870    0.02266

 Calculation was performed for a charged system with PBC
 You may consider including the monopole correction to the total energy
 The correction is to be divided by the dielectric constant

--- !EnergyTerms
iteration_state     : {dtset: 1, itime: 19, icycle: 1, }
comment             : Components of total free energy in Hartree
kinetic             :  1.51194803602438E+01
hartree             :  2.23090677270903E+01
xc                  : -7.73335043365323E+00
Ewald energy        : -1.33335173346403E+00
psp_core            :  6.46659751152509E-02
local_psp           : -6.49873263078038E+01
PAW spherical_terms :  7.07395381887143E+00
total_energy        : -2.94868605936003E+01
total_energy_eV     : -8.02378352793855E+02
monopole_correction :  9.49609608068055E-02
monopole_correction_eV:  2.58401938280345E+00
...


--- !EnergyTermsDC
iteration_state     : {dtset: 1, itime: 19, icycle: 1, }
comment             : '"Double-counting" decomposition of free energy'
band_energy         : -8.28588053665007E+00
Ewald energy        : -1.33335173346403E+00
psp_core            :  6.46659751152509E-02
xc_dc               : -1.99162227164825E+01
PAW spherical_terms : -1.60721158115189E-02
total_energy_dc     : -2.94868611272928E+01
total_energy_dc_eV  : -8.02378367316368E+02
...

 rms coord change=  6.0839E-04   atom, delta coord (reduced):
     1        0.000000000000      0.000000000000      0.000000000000
     2       -0.000802584714     -0.001024385930     -0.000768365646
     3       -0.001159236797     -0.001013133115     -0.000800763701
     4        0.000000000000      0.000000000000      0.000000000000
     5       -0.000086819578     -0.001155846629     -0.000006459932
     6       -0.000406030424      0.000174821030      0.000554267370
     7        0.000582453731     -0.000037924870     -0.000719974083
     8        0.000101872824      0.000925389083      0.000126535949

 Cartesian components of stress tensor (hartree/bohr^3)
  sigma(1 1)=  9.91405799E-05  sigma(3 2)= -3.76982263E-07
  sigma(2 2)=  3.47210363E-06  sigma(3 1)= -1.25090021E-06
  sigma(3 3)=  4.67873360E-06  sigma(2 1)=  5.14386578E-07

-Cartesian components of stress tensor (GPa)         [Pressure= -1.0522E+00 GPa]
- sigma(1 1)=  2.91681656E+00  sigma(3 2)= -1.10912011E-02
- sigma(2 2)=  1.02152816E-01  sigma(3 1)= -3.68027547E-02
- sigma(3 3)=  1.37653095E-01  sigma(2 1)=  1.51337756E-02

== END DATASET(S) ==============================================================
================================================================================
  
 -outvars: echo values of variables after computation  --------
-          iomode           1
            acell      1.9000000000E+01  9.4500000000E+00  9.4500000000E+00 Bohr
              amu      1.59994000E+01  1.40067400E+01  1.00794000E+00
           bandpp          10
       cellcharge      1.00000000E+00
     densfor_pred           6
             ecut      2.00000000E+01 Hartree
           etotal     -2.9486861127E+01
            fcart      7.8821521140E-03  1.0274974443E-04 -2.7675546110E-04
                       1.6433076222E-05  1.8183912409E-05  3.2117912636E-06
                       2.7258524645E-05 -1.7632724703E-07  1.8980691751E-05
                      -7.9642740762E-03 -1.2331748346E-04  2.7895189239E-04
                       2.5604817282E-06 -4.8806461170E-05 -2.1969131585E-05
                       5.4352744190E-06  8.7142718320E-06  1.2634595279E-05
                       2.9843264733E-05  1.9171384030E-06  8.1520162894E-07
                       5.9134046011E-07  4.0735204805E-05 -1.5869579629E-05
-          fftalg         512
           iatfix        1    4
           ionmov           2
           istwfk        2
              ixc           2
           kptopt           0
P           mkmem           1
           natfix           2
            natom           8
            nband          10
            ngfft          80      40      40
          ngfftdg         120      54      54
             nkpt           1
            nstep          50
             nsym           1
            ntime         500
           ntypat           3
              occ      2.000000  2.000000  2.000000  2.000000  2.000000  2.000000
                       2.000000  2.000000  0.000000  0.000000
        optforces           1
        paral_kgb           1
        pawecutdg      4.00000000E+01 Hartree
          spgroup           1
           strten      9.9140579941E-05  3.4721036283E-06  4.6787336033E-06
                      -3.7698226326E-07 -1.2509002075E-06  5.1438657808E-07
           toldff      5.00000000E-07
            typat      1  3  3  2  3  3  3  3
           useylm           1
         wfoptalg         114
           xangst      0.0000000000E+00  0.0000000000E+00  0.0000000000E+00
                      -3.1216948239E-01 -1.9552267266E-01  9.0485761834E-01
                      -3.3415539339E-01  8.9773360360E-01 -1.9230439946E-01
                       4.0000000148E+00  0.0000000000E+00  0.0000000000E+00
                       4.4861271007E+00 -1.5498007127E-01 -8.9693230765E-01
                       4.2099176367E+00 -7.8592577107E-01  6.3367174082E-01
                       4.3548562196E+00  8.7071035138E-01  4.2359960944E-01
                       2.9570242777E+00  6.0527616193E-02 -1.3506722906E-01
            xcart      0.0000000000E+00  0.0000000000E+00  0.0000000000E+00
                      -5.8991482658E-01 -3.6948430274E-01  1.7099330816E+00
                      -6.3146217700E-01  1.6964706448E+00 -3.6340264780E-01
                       7.5589045315E+00  0.0000000000E+00  0.0000000000E+00
                       8.4775515863E+00 -2.9286988967E-01 -1.6949564149E+00
                       7.9555913459E+00 -1.4851844626E+00  1.1974660439E+00
                       8.2294855728E+00  1.6454040991E+00  8.0048724889E-01
                       5.5879660325E+00  1.1438061766E-01 -2.5524007151E-01
             xred      0.0000000000E+00  0.0000000000E+00  0.0000000000E+00
                      -3.1048148768E-02 -3.9098868015E-02  1.8094529964E-01
                      -3.3234851421E-02  1.7952070316E-01 -3.8455306645E-02
                       3.9783708061E-01  0.0000000000E+00  0.0000000000E+00
                       4.4618692559E-01 -3.0991522717E-02 -1.7936046719E-01
                       4.1871533400E-01 -1.5716237700E-01  1.2671598348E-01
                       4.3313081962E-01  1.7411683588E-01  8.4707645385E-02
                       2.9410347539E-01  1.2103769064E-02 -2.7009531377E-02
            znucl        8.00000    7.00000    1.00000

================================================================================


- Timing analysis has been suppressed with timopt=0



================================================================================

 Suggested references for the acknowledgment of ABINIT usage.

 The users of ABINIT have little formal obligations with respect to the ABINIT group
 (those specified in the GNU General Public License, http://www.gnu.org/copyleft/gpl.txt).
 However, it is common practice in the scientific literature,
 to acknowledge the efforts of people that have made the research possible.
 In this spirit, please find below suggested citations of work written by ABINIT developers,
 corresponding to implementations inside of ABINIT that you have used in the present run.
 Note also that it will be of great value to readers of publications presenting these results,
 to read papers enabling them to understand the theoretical formalism and details
 of the ABINIT implementation.
 For information on why they are suggested, see also https://docs.abinit.org/theory/acknowledgments.
-
- [1] Implementation of the Projector Augmented-Wave Method in the ABINIT code.
- M. Torrent, F. Jollet, F. Bottin, G. Zerah, and X. Gonze Comput. Mat. Science 42, 337, (2008).
- Comment: PAW calculations. Strong suggestion to cite this paper.
- DOI and bibtex: see https://docs.abinit.org/theory/bibliography/#torrent2008
-
- [2] Large scale ab initio calculations based on three levels of parallelization
- F. Bottin, S. Leroux, A. Knyazev, G. Zerah, Comput. Mat. Science 42, 329, (2008).
- Comment: in case LOBPCG algorithm is used (wfoptalg=4/14/114).
- Strong suggestion to cite this paper in your publications.
- This paper is also available at http://www.arxiv.org/abs/0707.3405
- DOI and bibtex: see https://docs.abinit.org/theory/bibliography/#bottin2008
-
- [3] The Abinit project: Impact, environment and recent developments.
- Computer Phys. Comm. 248, 107042 (2020).
- X.Gonze, B. Amadon, G. Antonius, F.Arnardi, L.Baguet, J.-M.Beuken,
- J.Bieder, F.Bottin, J.Bouchet, E.Bousquet, N.Brouwer, F.Bruneval,
- G.Brunin, T.Cavignac, J.-B. Charraud, Wei Chen, M.Cote, S.Cottenier,
- J.Denier, G.Geneste, Ph.Ghosez, M.Giantomassi, Y.Gillet, O.Gingras,
- D.R.Hamann, G.Hautier, Xu He, N.Helbig, N.Holzwarth, Y.Jia, F.Jollet,
- W.Lafargue-Dit-Hauret, K.Lejaeghere, M.A.L.Marques, A.Martin, C.Martins,
- H.P.C. Miranda, F.Naccarato, K. Persson, G.Petretto, V.Planes, Y.Pouillon,
- S.Prokhorenko, F.Ricci, G.-M.Rignanese, A.H.Romero, M.M.Schmitt, M.Torrent,
- M.J.van Setten, B.Van Troeye, M.J.Verstraete, G.Zerah and J.W.Zwanzig
- Comment: the fifth generic paper describing the ABINIT project.
- Note that a version of this paper, that is not formatted for Computer Phys. Comm. 
- is available at https://www.abinit.org/sites/default/files/ABINIT20.pdf .
- The licence allows the authors to put it on the Web.
- DOI and bibtex: see https://docs.abinit.org/theory/bibliography/#gonze2020
-
- [4] ABINIT: Overview, and focus on selected capabilities
- J. Chem. Phys. 152, 124102 (2020).
- A. Romero, D.C. Allan, B. Amadon, G. Antonius, T. Applencourt, L.Baguet,
- J.Bieder, F.Bottin, J.Bouchet, E.Bousquet, F.Bruneval,
- G.Brunin, D.Caliste, M.Cote,
- J.Denier, C. Dreyer, Ph.Ghosez, M.Giantomassi, Y.Gillet, O.Gingras,
- D.R.Hamann, G.Hautier, F.Jollet, G. Jomard,
- A.Martin, 
- H.P.C. Miranda, F.Naccarato, G.Petretto, N.A. Pike, V.Planes,
- S.Prokhorenko, T. Rangel, F.Ricci, G.-M.Rignanese, M.Royo, M.Stengel, M.Torrent,
- M.J.van Setten, B.Van Troeye, M.J.Verstraete, J.Wiktor, J.W.Zwanziger, and X.Gonze.
- Comment: a global overview of ABINIT, with focus on selected capabilities .
- Note that a version of this paper, that is not formatted for J. Chem. Phys 
- is available at https://www.abinit.org/sites/default/files/ABINIT20_JPC.pdf .
- The licence allows the authors to put it on the Web.
- DOI and bibtex: see https://docs.abinit.org/theory/bibliography/#romero2020
-
- [5] Recent developments in the ABINIT software package.
- Computer Phys. Comm. 205, 106 (2016).
- X.Gonze, F.Jollet, F.Abreu Araujo, D.Adams, B.Amadon, T.Applencourt,
- C.Audouze, J.-M.Beuken, J.Bieder, A.Bokhanchuk, E.Bousquet, F.Bruneval
- D.Caliste, M.Cote, F.Dahm, F.Da Pieve, M.Delaveau, M.Di Gennaro,
- B.Dorado, C.Espejo, G.Geneste, L.Genovese, A.Gerossier, M.Giantomassi,
- Y.Gillet, D.R.Hamann, L.He, G.Jomard, J.Laflamme Janssen, S.Le Roux,
- A.Levitt, A.Lherbier, F.Liu, I.Lukacevic, A.Martin, C.Martins,
- M.J.T.Oliveira, S.Ponce, Y.Pouillon, T.Rangel, G.-M.Rignanese,
- A.H.Romero, B.Rousseau, O.Rubel, A.A.Shukri, M.Stankovski, M.Torrent,
- M.J.Van Setten, B.Van Troeye, M.J.Verstraete, D.Waroquier, J.Wiktor,
- B.Xu, A.Zhou, J.W.Zwanziger.
- Comment: the fourth generic paper describing the ABINIT project.
- Note that a version of this paper, that is not formatted for Computer Phys. Comm. 
- is available at https://www.abinit.org/sites/default/files/ABINIT16.pdf .
- The licence allows the authors to put it on the Web.
- DOI and bibtex: see https://docs.abinit.org/theory/bibliography/#gonze2016
-
- Proc.   0 individual time (sec): cpu=         40.8  wall=         40.9

================================================================================

 Calculation completed.
.Delivered  57 WARNINGs and   6 COMMENTs to log file.
+Overall time at end (sec) : cpu=         40.8  wall=         40.9
