
.Version 10.3.4.3 of ABINIT, released Nov 2024.
.(MPI version, prepared for a x86_64_linux_gnu10.2 computer) 

.Copyright (C) 1998-2025 ABINIT group .
 ABINIT comes with ABSOLUTELY NO WARRANTY.
 It is free software, and you are welcome to redistribute it
 under certain conditions (GNU General Public License,
 see ~abinit/COPYING or http://www.gnu.org/copyleft/gpl.txt).

 ABINIT is a project of the Universite Catholique de Louvain,
 Corning Inc. and other collaborators, see ~abinit/doc/developers/contributors.txt .
 Please read https://docs.abinit.org/theory/acknowledgments for suggested
 acknowledgments of the ABINIT effort.
 For more information, see https://www.abinit.org .

.Starting date : Wed 18 Dec 2024.
- ( at 20h25 )
  
- input  file    -> /home/buildbot/ABINIT3/scope_gnu_10.2_paral/baguetl_chebfi-oracle/tests/TestBot_MPI24/tutoparal_tpsic_03_MPI24/tpsic_03.abi
- output file    -> tpsic_03_MPI24.abo
- root for input  files -> tpsic_03_MPI24i
- root for output files -> tpsic_03_MPI24o

- inpspheads : Reading pseudopotential header in XML form from 
-   /home/buildbot/ABINIT3/scope_gnu_10.2_paral/baguetl_chebfi-oracle/tests/Pspdir/Psdj_paw_pbe_std/Na.xml
- inpspheads : Reading pseudopotential header in XML form from 
-   /home/buildbot/ABINIT3/scope_gnu_10.2_paral/baguetl_chebfi-oracle/tests/Pspdir/Psdj_paw_pbe_std/I.xml
 Symmetries : space group Cm m m (# 65); Bravais oC (1-face-center ortho.)
================================================================================
 Values of the parameters that define the memory need of the present run
     intxc =       0    ionmov =       2      iscf =      17    lmnmax =       8
     lnmax =       4     mgfft =      50  mpssoang =       2    mqgrid =    3702
     natom =       8  nloc_mem =       2    nspden =       2   nspinor =       1
    nsppol =       2      nsym =       8    n1xccc =       1    ntypat =       2
    occopt =       0   xclevel =       2
-    mband =          32        mffmem =           1         mkmem =           1
       mpw =        3667          nfft =      125000          nkpt =           2
Pmy_natom=         1
  nimage =         3
 PAW method is used; the additional fine FFT grid is defined by:
   mgfftf=        80    nfftf =    512000
================================================================================
P This job should need less than                     261.645 Mbytes of memory.
  Rough estimation (10% accuracy) of disk space for files :
_ WF disk file :      7.164 Mbytes ; DEN or POT disk file :      7.815 Mbytes.
================================================================================

--------------------------------------------------------------------------------
------------- Echo of variables that govern the present computation ------------
--------------------------------------------------------------------------------
-
- outvars: echo of selected default values
-   iomode0 =  3 , fftalg0 =312 , wfoptalg0 = 10
-
- outvars: echo of global parameters not present in the input file
-  max_nthreads =    0
-
 -outvars: echo values of preprocessed input variables --------
            acell      1.3000000000E+01  1.3000000000E+01  1.3000000000E+01 Bohr
              amu      2.29897680E+01  1.26904470E+02
       cellcharge      0.0000000000E+00
  cellcharge_2img      2.5000000000E-02
  cellcharge_3img      5.0000000000E-02
     densfor_pred           6
           diemac      2.00000000E+00
             ecut      1.70000000E+01 Hartree
-          fftalg         312
           imgmov           6
           ionmov           2
              ixc     -101130
              kpt      2.50000000E-01  2.50000000E-01  2.50000000E-01
                      -2.50000000E-01  2.50000000E-01  2.50000000E-01
         kptrlatt        2    0    0      0    2    0      0    0    2
          kptrlen      2.60000000E+01
        mixesimgf     -5.90000000E+01  8.00000000E+01 -2.00000000E+01
P           mkmem           1
            natom           8
            nband          32
        ndynimage           3
            ngfft          50      50      50
          ngfftdg          80      80      80
           nimage           3
             nkpt           2
    nblock_lobpcg          16
-          npband           2
-         npimage           3
-        np_spkpt           4
           nspden           2
           nsppol           2
            nstep          20
             nsym           8
        ntimimage           6
           ntypat           2
              occ      1.000000  1.000000  1.000000  1.000000  1.000000  1.000000
                       1.000000  1.000000  1.000000  1.000000  1.000000  1.000000
                       1.000000  1.000000  1.000000  1.000000  1.000000  1.000000
                       1.000000  1.000000  1.000000  1.000000  1.000000  1.000000
                       1.000000  1.000000  1.000000  1.000000  1.000000  1.000000
                       1.000000  1.000000
                       1.000000  1.000000  1.000000  1.000000  1.000000  1.000000
                       1.000000  1.000000  1.000000  1.000000  1.000000  1.000000
                       1.000000  1.000000  1.000000  1.000000  1.000000  1.000000
                       1.000000  1.000000  1.000000  1.000000  1.000000  1.000000
                       1.000000  1.000000  1.000000  1.000000  1.000000  1.000000
                       1.000000  1.000000
         occ_2img      1.000000  1.000000  1.000000  1.000000  1.000000  1.000000
                       1.000000  1.000000  1.000000  1.000000  1.000000  1.000000
                       1.000000  1.000000  1.000000  1.000000  1.000000  1.000000
                       1.000000  1.000000  1.000000  1.000000  1.000000  1.000000
                       1.000000  1.000000  1.000000  1.000000  1.000000  1.000000
                       1.000000  0.975000
                       1.000000  1.000000  1.000000  1.000000  1.000000  1.000000
                       1.000000  1.000000  1.000000  1.000000  1.000000  1.000000
                       1.000000  1.000000  1.000000  1.000000  1.000000  1.000000
                       1.000000  1.000000  1.000000  1.000000  1.000000  1.000000
                       1.000000  1.000000  1.000000  1.000000  1.000000  1.000000
                       1.000000  1.000000
         occ_3img      1.000000  1.000000  1.000000  1.000000  1.000000  1.000000
                       1.000000  1.000000  1.000000  1.000000  1.000000  1.000000
                       1.000000  1.000000  1.000000  1.000000  1.000000  1.000000
                       1.000000  1.000000  1.000000  1.000000  1.000000  1.000000
                       1.000000  1.000000  1.000000  1.000000  1.000000  1.000000
                       1.000000  0.950000
                       1.000000  1.000000  1.000000  1.000000  1.000000  1.000000
                       1.000000  1.000000  1.000000  1.000000  1.000000  1.000000
                       1.000000  1.000000  1.000000  1.000000  1.000000  1.000000
                       1.000000  1.000000  1.000000  1.000000  1.000000  1.000000
                       1.000000  1.000000  1.000000  1.000000  1.000000  1.000000
                       1.000000  1.000000
           occopt           0
        optforces           1
        paral_kgb           1
        pawecutdg      4.00000000E+01 Hartree
           prtden           0
        prtebands           0
           prteig           0
           prtgsr           0
           prtvol           1
            prtwf           0
           shiftk      5.00000000E-01  5.00000000E-01  5.00000000E-01
          spgroup          65
           symrel      1  0  0   0  1  0   0  0  1      -1  0  0   0 -1  0   0  0 -1
                      -1  0  0   0 -1  0   0  0  1       1  0  0   0  1  0   0  0 -1
                       0  1  0   1  0  0   0  0  1       0 -1  0  -1  0  0   0  0 -1
                       0 -1  0  -1  0  0   0  0  1       0  1  0   1  0  0   0  0 -1
            tnons      0.0000000  0.0000000  0.0000000     0.5000000  0.5000000 -0.0000000
                       0.5000000  0.5000000  0.0000000     0.0000000  0.0000000 -0.0000000
                       0.0000000  0.0000000  0.0000000     0.5000000  0.5000000 -0.0000000
                       0.5000000  0.5000000  0.0000000     0.0000000  0.0000000 -0.0000000
           toldff      1.00000000E-06
           tolimg      5.00000000E-06 Hartree
           tolmxf      1.00000000E-05
     tolwfr_diago      1.00000000E-30
            typat      1  1  1  1  2  2  2  2
           useylm           1
         wfoptalg         114
              wtk        0.50000    0.50000
           xangst     -2.1232069075E-01 -2.1232069075E-01 -4.5014937025E-30
                       1.3656091174E-01  3.3030909441E+00  3.4396518558E+00
                       3.3030909441E+00  1.3656091174E-01  3.4396518558E+00
                       3.6519725466E+00  3.6519725466E+00 -4.5014937025E-30
                       2.8893075589E+00  5.5034429694E-01 -4.5014937025E-30
                       5.5034429694E-01  2.8893075589E+00 -4.5014937025E-30
                      -1.4662401710E-01 -1.4662401710E-01  3.4396518558E+00
                       3.5862758730E+00  3.5862758730E+00  3.4396518558E+00
            xcart     -4.0122795787E-01 -4.0122795787E-01 -8.5065902866E-30
                       2.5806272365E-01  6.2419372764E+00  6.5000000000E+00
                       6.2419372764E+00  2.5806272365E-01  6.5000000000E+00
                       6.9012279579E+00  6.9012279579E+00 -8.5065902866E-30
                       5.4600000000E+00  1.0400000000E+00 -8.5065902866E-30
                       1.0400000000E+00  5.4600000000E+00 -8.5065902866E-30
                      -2.7707923682E-01 -2.7707923682E-01  6.5000000000E+00
                       6.7770792369E+00  6.7770792369E+00  6.5000000000E+00
             xred     -3.0863689067E-02 -3.0863689067E-02 -6.5435309897E-31
                       1.9850978743E-02  4.8014902126E-01  5.0000000000E-01
                       4.8014902126E-01  1.9850978743E-02  5.0000000000E-01
                       5.3086368907E-01  5.3086368907E-01 -6.5435309897E-31
                       4.2000000000E-01  8.0000000001E-02 -6.5435309897E-31
                       8.0000000001E-02  4.2000000000E-01 -6.5435309897E-31
                      -2.1313787447E-02 -2.1313787447E-02  5.0000000000E-01
                       5.2131378745E-01  5.2131378745E-01  5.0000000000E-01
            znucl       11.00000   53.00000

================================================================================

 chkinp: Checking input parameters for consistency.

================================================================================
== DATASET  1 ==================================================================
-   mpi_nproc: 24, omp_nthreads: -1 (-1 if OMP is not activated)


--- !DatasetInfo
iteration_state: {dtset: 1, }
dimensions: {natom: 8, nkpt: 2, mband: 32, nsppol: 2, nspinor: 1, nspden: 2, mpw: 3667, }
cutoff_energies: {ecut:  17.0, pawecutdg:  40.0, }
electrons: {nelect:   6.40000000E+01, charge:   0.00000000E+00, occopt:   0.00000000E+00, tsmear:   1.00000000E-02, }
meta: {optdriver: 0, ionmov: 2, optcell: 0, iscf: 17, paral_kgb: 1, }
...


================================================================================
 LINEAR COMBINATION OF CONSTRAINED DFT ENERGIES - TIME STEP     1
================================================================================

--------------------------------------------------------------------------------
 LINEAR COMBINATION OF CONSTRAINED DFT ENERGIES - CELL #    1/   3
--------------------------------------------------------------------------------

 Real(R)+Recip(G) space primitive vectors, cartesian coordinates (Bohr,Bohr^-1):
 R(1)= 13.0000000  0.0000000  0.0000000  G(1)=  0.0769231  0.0000000  0.0000000
 R(2)=  0.0000000 13.0000000  0.0000000  G(2)=  0.0000000  0.0769231  0.0000000
 R(3)=  0.0000000  0.0000000 13.0000000  G(3)=  0.0000000  0.0000000  0.0769231
 Unit cell volume ucvol=  2.1970000E+03 bohr^3
 Angles (23,13,12)=  9.00000000E+01  9.00000000E+01  9.00000000E+01 degrees

 Coarse grid specifications (used for wave-functions):

 getcut: wavevector=  0.0000  0.0000  0.0000  ngfft=  50  50  50
         ecut(hartree)=     17.000   => boxcut(ratio)=   2.07223

 Fine grid specifications (used for densities):

 getcut: wavevector=  0.0000  0.0000  0.0000  ngfft=  80  80  80
         ecut(hartree)=     40.000   => boxcut(ratio)=   2.16148

--- Pseudopotential description ------------------------------------------------
- pspini: atom type   1  psp file is /home/buildbot/ABINIT3/scope_gnu_10.2_paral/baguetl_chebfi-oracle/tests/Pspdir/Psdj_paw_pbe_std/Na.xml
- pspatm: opening atomic psp file    /home/buildbot/ABINIT3/scope_gnu_10.2_paral/baguetl_chebfi-oracle/tests/Pspdir/Psdj_paw_pbe_std/Na.xml
- pspatm : Reading pseudopotential header in XML form from /home/buildbot/ABINIT3/scope_gnu_10.2_paral/baguetl_chebfi-oracle/tests/Pspdir/Psdj_paw_pbe_std/Na.xml
 Pseudopotential format is: paw10
 basis_size (lnmax)=  4 (lmn_size=  8), orbitals=   0   0   1   1
 Spheres core radius: rc_sph= 1.60198715
 1 radial meshes are used:
  - mesh 1: r(i)=AA*[exp(BB*(i-1))-1], size=2001 , AA= 0.54109E-03 BB= 0.59520E-02
 Shapefunction is SIN type: shapef(r)=[sin(pi*r/rshp)/(pi*r/rshp)]**2
 Radius for shape functions =  1.40530451
 mmax= 2001
 Radial grid used for partial waves is grid 1
 Radial grid used for projectors is grid 1
 Radial grid used for (t)core density is grid 1
 Radial grid used for Vloc is grid 1
 Radial grid used for pseudo valence density is grid 1
 Mesh size for Vloc has been set to 1768 to avoid numerical noise.
 Compensation charge density is not taken into account in XC energy/potential
 pspatm: atomic psp has been read  and splines computed

- pspini: atom type   2  psp file is /home/buildbot/ABINIT3/scope_gnu_10.2_paral/baguetl_chebfi-oracle/tests/Pspdir/Psdj_paw_pbe_std/I.xml
- pspatm: opening atomic psp file    /home/buildbot/ABINIT3/scope_gnu_10.2_paral/baguetl_chebfi-oracle/tests/Pspdir/Psdj_paw_pbe_std/I.xml
- pspatm : Reading pseudopotential header in XML form from /home/buildbot/ABINIT3/scope_gnu_10.2_paral/baguetl_chebfi-oracle/tests/Pspdir/Psdj_paw_pbe_std/I.xml
 Pseudopotential format is: paw10
 basis_size (lnmax)=  4 (lmn_size=  8), orbitals=   0   0   1   1
 Spheres core radius: rc_sph= 2.30022271
 1 radial meshes are used:
  - mesh 1: r(i)=AA*[exp(BB*(i-1))-1], size=2000 , AA= 0.12610E-03 BB= 0.66836E-02
 Shapefunction is SIN type: shapef(r)=[sin(pi*r/rshp)/(pi*r/rshp)]**2
 Radius for shape functions =  2.10879093
 mmax= 2000
 Radial grid used for partial waves is grid 1
 Radial grid used for projectors is grid 1
 Radial grid used for (t)core density is grid 1
 Radial grid used for Vloc is grid 1
 Radial grid used for pseudo valence density is grid 1
 Mesh size for Vloc has been set to 1792 to avoid numerical noise.
 Compensation charge density is not taken into account in XC energy/potential
 pspatm: atomic psp has been read  and splines computed

   2.59167868E+04                                ecore*ucvol(ha*bohr**3)
--------------------------------------------------------------------------------

P newkpt: treating     32 bands with npw=    3667 for ikpt=   1 by node    0
P newkpt: treating     32 bands with npw=    3667 for ikpt=   2 by node    1
P newkpt: treating     32 bands with npw=    3667 for ikpt=   1 by node    3
P newkpt: treating     32 bands with npw=    3667 for ikpt=   2 by node    2
_setup2: Arith. and geom. avg. npw (full set) are    3667.000    3667.000

================================================================================

--- !BeginCycle
iteration_state: {dtset: 1, timimage: 1, image: 1, }
solver: {iscf: 17, nstep: 20, nline: 4, wfoptalg: 114, }
tolerances: {toldff: 1.00E-06, }
...

     iter   Etot(hartree)      deltaE(h)  residm     nres2    diffor    maxfor
 ETOT  1  -239.41908173182    -2.394E+02 2.666E-03 2.725E+00 2.658E-02 2.658E-02
 ETOT  2  -239.41779349972     1.288E-03 8.414E-08 5.099E-01 3.235E-03 2.761E-02
 ETOT  3  -239.41793570544    -1.422E-04 5.787E-05 9.123E-02 6.835E-04 2.693E-02
 ETOT  4  -239.41847988908    -5.442E-04 3.762E-06 3.321E-03 1.188E-03 2.574E-02
 ETOT  5  -239.41850412867    -2.424E-05 3.945E-06 2.767E-04 5.990E-04 2.520E-02
 ETOT  6  -239.41851916544    -1.504E-05 6.195E-08 4.471E-05 6.205E-05 2.514E-02
 ETOT  7  -239.41851979113    -6.257E-07 3.422E-08 1.882E-06 1.030E-04 2.505E-02
 ETOT  8  -239.41851996471    -1.736E-07 6.886E-11 3.689E-07 1.098E-05 2.506E-02
 ETOT  9  -239.41851996782    -3.115E-09 1.563E-11 3.844E-08 4.401E-06 2.505E-02
 ETOT 10  -239.41851996854    -7.144E-10 8.066E-12 1.761E-09 4.308E-07 2.505E-02
 ETOT 11  -239.41851996858    -4.584E-11 2.689E-14 2.494E-10 3.008E-07 2.505E-02

 At SCF step   11, forces are converged :
  for the second time, max diff in force=  3.008E-07 < toldff=  1.000E-06

 Cartesian components of stress tensor (hartree/bohr^3)
  sigma(1 1)=  3.58494344E-05  sigma(3 2)=  0.00000000E+00
  sigma(2 2)=  3.58494344E-05  sigma(3 1)=  0.00000000E+00
  sigma(3 3)=  8.65913536E-05  sigma(2 1)=  2.59753906E-05


--- !ResultsGS
iteration_state: {dtset: 1, timimage: 1, image: 1, }
comment   : Summary of ground state results
lattice_vectors:
- [ 13.0000000,   0.0000000,   0.0000000, ]
- [  0.0000000,  13.0000000,   0.0000000, ]
- [  0.0000000,   0.0000000,  13.0000000, ]
lattice_lengths: [  13.00000,   13.00000,   13.00000, ]
lattice_angles: [ 90.000,  90.000,  90.000, ] # degrees, (23, 13, 12)
lattice_volume:   2.1970000E+03
convergence: {deltae: -4.584E-11, res2:  2.494E-10, residm:  2.689E-14, diffor:  3.008E-07, }
etotal    :  -2.39418520E+02
entropy   :   0.00000000E+00
fermie    :  -1.29047991E-01
cartesian_stress_tensor: # hartree/bohr^3
- [  3.58494344E-05,   2.59753906E-05,   0.00000000E+00, ]
- [  2.59753906E-05,   3.58494344E-05,   0.00000000E+00, ]
- [  0.00000000E+00,   0.00000000E+00,   8.65913536E-05, ]
pressure_GPa:  -1.5524E+00
xred      :
- [ -3.0864E-02,  -3.0864E-02,  -6.5435E-31, Na]
- [  1.9851E-02,   4.8015E-01,   5.0000E-01, Na]
- [  4.8015E-01,   1.9851E-02,   5.0000E-01, Na]
- [  5.3086E-01,   5.3086E-01,  -6.5435E-31, Na]
- [  4.2000E-01,   8.0000E-02,  -6.5435E-31,  I]
- [  8.0000E-02,   4.2000E-01,  -6.5435E-31,  I]
- [ -2.1314E-02,  -2.1314E-02,   5.0000E-01,  I]
- [  5.2131E-01,   5.2131E-01,   5.0000E-01,  I]
cartesian_forces: # hartree/bohr
- [  2.84059578E-04,   2.84059578E-04,  -0.00000000E+00, ]
- [  2.27886853E-05,  -2.27886853E-05,  -0.00000000E+00, ]
- [ -2.27886853E-05,   2.27886853E-05,  -0.00000000E+00, ]
- [ -2.84059578E-04,  -2.84059578E-04,  -0.00000000E+00, ]
- [  2.50539162E-02,  -2.50539162E-02,  -2.48551867E-28, ]
- [ -2.50539162E-02,   2.50539162E-02,   2.48551867E-28, ]
- [ -2.41417323E-04,  -2.41417323E-04,  -2.48551867E-28, ]
- [  2.41417323E-04,   2.41417323E-04,   2.48551867E-28, ]
force_length_stats: {min:   3.22280678E-05, max:   3.54315881E-02, mean:   9.05173819E-03, }
...

 Integrated electronic and magnetization densities in atomic spheres:
 ---------------------------------------------------------------------
 Radius=ratsph(iatom), smearing ratsm=  0.0000. Diff(up-dn)=approximate z local magnetic moment.
 Atom    Radius    up_density   dn_density  Total(up+dn)  Diff(up-dn)
    1   1.60199     3.809224     3.809224      7.618448     0.000000
    2   1.60199     3.807494     3.807494      7.614987     0.000000
    3   1.60199     3.807494     3.807494      7.614987     0.000000
    4   1.60199     3.809224     3.809224      7.618448     0.000000
    5   2.30022     2.003219     2.003219      4.006438    -0.000000
    6   2.30022     2.003219     2.003219      4.006438    -0.000000
    7   2.30022     2.002356     2.002356      4.004713    -0.000000
    8   2.30022     2.002356     2.002356      4.004713    -0.000000
 ---------------------------------------------------------------------
  Sum:             23.244585    23.244585     46.489171    -0.000000
 Total magnetization (from the atomic spheres):            -0.000000
 Total magnetization (exact up - dn):                       0.000000

 PAW TEST:
 ==== Compensation charge inside spheres ============
 The following values must be close to each other ...
 Compensation charge over spherical meshes =     11.525120572508317
 Compensation charge over fine fft grid    =     11.525224450384696

 ==== Results concerning PAW augmentation regions ====

 Total pseudopotential strength Dij (hartree):
 Atom #  1 - Spin component 1
  -2.05256   0.22867   0.00107   0.00000   0.00107  -0.00011   0.00000  -0.00011
   0.22867  -0.01908  -0.00017   0.00000  -0.00017   0.00002   0.00000   0.00002
   0.00107  -0.00017  -1.63679   0.00000   0.00002   0.11279   0.00000  -0.00000
   0.00000   0.00000   0.00000  -1.63676   0.00000   0.00000   0.11279   0.00000
   0.00107  -0.00017   0.00002   0.00000  -1.63679  -0.00000   0.00000   0.11279
  -0.00011   0.00002   0.11279   0.00000  -0.00000  -0.00594   0.00000   0.00000
   0.00000   0.00000   0.00000   0.11279   0.00000   0.00000  -0.00594   0.00000
  -0.00011   0.00002  -0.00000   0.00000   0.11279   0.00000   0.00000  -0.00594
 Atom #  1 - Spin component 2
  -2.05256   0.22867   0.00107   0.00000   0.00107  -0.00011   0.00000  -0.00011
   0.22867  -0.01908  -0.00017   0.00000  -0.00017   0.00002   0.00000   0.00002
   0.00107  -0.00017  -1.63679   0.00000   0.00002   0.11279   0.00000  -0.00000
   0.00000   0.00000   0.00000  -1.63676   0.00000   0.00000   0.11279   0.00000
   0.00107  -0.00017   0.00002   0.00000  -1.63679  -0.00000   0.00000   0.11279
  -0.00011   0.00002   0.11279   0.00000  -0.00000  -0.00594   0.00000   0.00000
   0.00000   0.00000   0.00000   0.11279   0.00000   0.00000  -0.00594   0.00000
  -0.00011   0.00002  -0.00000   0.00000   0.11279   0.00000   0.00000  -0.00594
 Atom #  8 - Spin component 1
  -1.04042   2.45573   0.00000   0.00000   0.00000  -0.00000   0.00000  -0.00000
   2.45573  -7.38049  -0.00000   0.00000  -0.00000   0.00002   0.00000   0.00002
   0.00000  -0.00000  -0.33059   0.00000  -0.00000   1.33648   0.00000   0.00000
   0.00000   0.00000   0.00000  -0.33058   0.00000   0.00000   1.33646   0.00000
   0.00000  -0.00000  -0.00000   0.00000  -0.33059   0.00000   0.00000   1.33648
  -0.00000   0.00002   1.33648   0.00000   0.00000  -6.50939   0.00000  -0.00002
   0.00000   0.00000   0.00000   1.33646   0.00000   0.00000  -6.50928   0.00000
  -0.00000   0.00002   0.00000   0.00000   1.33648  -0.00002   0.00000  -6.50939
 Atom #  8 - Spin component 2
  -1.04042   2.45573   0.00000   0.00000   0.00000  -0.00000   0.00000  -0.00000
   2.45573  -7.38049  -0.00000   0.00000  -0.00000   0.00002   0.00000   0.00002
   0.00000  -0.00000  -0.33059   0.00000  -0.00000   1.33648   0.00000   0.00000
   0.00000   0.00000   0.00000  -0.33058   0.00000   0.00000   1.33646   0.00000
   0.00000  -0.00000  -0.00000   0.00000  -0.33059   0.00000   0.00000   1.33648
  -0.00000   0.00002   1.33648   0.00000   0.00000  -6.50939   0.00000  -0.00002
   0.00000   0.00000   0.00000   1.33646   0.00000   0.00000  -6.50928   0.00000
  -0.00000   0.00002   0.00000   0.00000   1.33648  -0.00002   0.00000  -6.50939


 Augmentation waves occupancies Rhoij:
 Atom #  1 - Spin component 1
   1.00913   0.03804  -0.00007   0.00000  -0.00007  -0.00345   0.00000  -0.00345
   0.03804   0.14842  -0.00225   0.00000  -0.00225   0.04560   0.00000   0.04560
  -0.00007  -0.00225   1.00643   0.00000  -0.00000   0.03169   0.00000   0.00025
   0.00000   0.00000   0.00000   1.00638   0.00000   0.00000   0.03072   0.00000
  -0.00007  -0.00225  -0.00000   0.00000   1.00643   0.00025   0.00000   0.03169
  -0.00345   0.04560   0.03169   0.00000   0.00025   0.16503   0.00000   0.02144
   0.00000   0.00000   0.00000   0.03072   0.00000   0.00000   0.15061   0.00000
  -0.00345   0.04560   0.00025   0.00000   0.03169   0.02144   0.00000   0.16503
 Atom #  1 - Spin component 2
   1.00913   0.03804  -0.00007   0.00000  -0.00007  -0.00345   0.00000  -0.00345
   0.03804   0.14842  -0.00225   0.00000  -0.00225   0.04560   0.00000   0.04560
  -0.00007  -0.00225   1.00643   0.00000  -0.00000   0.03169   0.00000   0.00025
   0.00000   0.00000   0.00000   1.00638   0.00000   0.00000   0.03072   0.00000
  -0.00007  -0.00225  -0.00000   0.00000   1.00643   0.00025   0.00000   0.03169
  -0.00345   0.04560   0.03169   0.00000   0.00025   0.16503   0.00000   0.02144
   0.00000   0.00000   0.00000   0.03072   0.00000   0.00000   0.15061   0.00000
  -0.00345   0.04560   0.00025   0.00000   0.03169   0.02144   0.00000   0.16503
 Atom #  8 - Spin component 1
   0.97692   0.00379  -0.00028   0.00000  -0.00028  -0.00000   0.00000  -0.00000
   0.00379   0.00008   0.00003   0.00000   0.00003   0.00000   0.00000   0.00000
  -0.00028   0.00003   0.89219   0.00000   0.00083   0.00400   0.00000  -0.00004
   0.00000   0.00000   0.00000   0.88984   0.00000   0.00000   0.00403   0.00000
  -0.00028   0.00003   0.00083   0.00000   0.89219  -0.00004   0.00000   0.00400
  -0.00000   0.00000   0.00400   0.00000  -0.00004   0.00002   0.00000   0.00000
   0.00000   0.00000   0.00000   0.00403   0.00000   0.00000   0.00002   0.00000
  -0.00000   0.00000  -0.00004   0.00000   0.00400   0.00000   0.00000   0.00002
 Atom #  8 - Spin component 2
   0.97692   0.00379  -0.00028   0.00000  -0.00028  -0.00000   0.00000  -0.00000
   0.00379   0.00008   0.00003   0.00000   0.00003   0.00000   0.00000   0.00000
  -0.00028   0.00003   0.89219   0.00000   0.00083   0.00400   0.00000  -0.00004
   0.00000   0.00000   0.00000   0.88984   0.00000   0.00000   0.00403   0.00000
  -0.00028   0.00003   0.00083   0.00000   0.89219  -0.00004   0.00000   0.00400
  -0.00000   0.00000   0.00400   0.00000  -0.00004   0.00002   0.00000   0.00000
   0.00000   0.00000   0.00000   0.00403   0.00000   0.00000   0.00002   0.00000
  -0.00000   0.00000  -0.00004   0.00000   0.00400   0.00000   0.00000   0.00002


================================================================================

 ----iterations are completed or convergence reached----

 Mean square residual over all n,k,spin=   32.279E-16; max=  26.887E-15
 reduced coordinates (array xred) for    8 atoms
      -0.030863689067     -0.030863689067     -0.000000000000
       0.019850978743      0.480149021261      0.500000000000
       0.480149021261      0.019850978743      0.500000000000
       0.530863689070      0.530863689070     -0.000000000000
       0.420000000002      0.080000000001     -0.000000000000
       0.080000000001      0.420000000002     -0.000000000000
      -0.021313787447     -0.021313787447      0.500000000000
       0.521313787451      0.521313787451      0.500000000000
 rms dE/dt=  1.3298E-01; max dE/dt=  3.2570E-01; dE/dt below (all hartree)
    1      -0.003692774514     -0.003692774514      0.000000000000
    2      -0.000296252909      0.000296252909      0.000000000000
    3       0.000296252909     -0.000296252909      0.000000000000
    4       0.003692774514      0.003692774514      0.000000000000
    5      -0.325700911186      0.325700911186      0.000000000000
    6       0.325700911186     -0.325700911186     -0.000000000000
    7       0.003138425199      0.003138425199      0.000000000000
    8      -0.003138425199     -0.003138425199     -0.000000000000

 cartesian coordinates (angstrom) at end:
    1     -0.21232069075444    -0.21232069075444    -0.00000000000000
    2      0.13656091174356     3.30309094411208     3.43965185583500
    3      3.30309094411208     0.13656091174356     3.43965185583500
    4      3.65197254661008     3.65197254661008    -0.00000000000000
    5      2.88930755891172     0.55034429694392    -0.00000000000000
    6      0.55034429694392     2.88930755891172    -0.00000000000000
    7     -0.14662401709733    -0.14662401709733     3.43965185583500
    8      3.58627587295297     3.58627587295297     3.43965185583500

 cartesian forces (hartree/bohr) at end:
    1      0.00028405957803     0.00028405957803    -0.00000000000000
    2      0.00002278868528    -0.00002278868528    -0.00000000000000
    3     -0.00002278868528     0.00002278868528    -0.00000000000000
    4     -0.00028405957803    -0.00028405957803    -0.00000000000000
    5      0.02505391624506    -0.02505391624506    -0.00000000000000
    6     -0.02505391624506     0.02505391624506     0.00000000000000
    7     -0.00024141732297    -0.00024141732297    -0.00000000000000
    8      0.00024141732297     0.00024141732297     0.00000000000000
 frms,max,avg= 1.0229355E-02 2.5053916E-02   0.000E+00  0.000E+00  0.000E+00 h/b

 cartesian forces (eV/Angstrom) at end:
    1      0.01460692957190     0.01460692957190    -0.00000000000000
    2      0.00117184121459    -0.00117184121459    -0.00000000000000
    3     -0.00117184121459     0.00117184121459    -0.00000000000000
    4     -0.01460692957190    -0.01460692957190    -0.00000000000000
    5      1.28832406436603    -1.28832406436603    -0.00000000000000
    6     -1.28832406436603     1.28832406436603     0.00000000000000
    7     -0.01241417683751    -0.01241417683751    -0.00000000000000
    8      0.01241417683751     0.01241417683751     0.00000000000000
 frms,max,avg= 5.2601453E-01 1.2883241E+00   0.000E+00  0.000E+00  0.000E+00 e/A
 length scales= 13.000000000000 13.000000000000 13.000000000000 bohr
              =  6.879303711670  6.879303711670  6.879303711670 angstroms
 Fermi (or HOMO) energy (hartree) =  -0.12905   Average Vxc (hartree)=  -0.25496
 Eigenvalues (hartree) for nkpt=   2  k points, SPIN UP:
 kpt#   1, nband= 32, wtk=  0.50000, kpt=  0.2500  0.2500  0.2500 (reduced coord)
  -2.03499   -2.03498   -2.03366   -2.03365   -1.00271   -1.00266   -1.00258   -1.00257
  -1.00245   -1.00244   -1.00125   -1.00123   -1.00123   -1.00119   -1.00115   -1.00115
  -0.55533   -0.54911   -0.54635   -0.53250   -0.22589   -0.21471   -0.20912   -0.20437
  -0.19620   -0.18268   -0.18032   -0.17670   -0.17156   -0.16684   -0.16648   -0.12905
 prteigrs : prtvol=0 or 1, do not print more k-points.

 Eigenvalues (hartree) for nkpt=   2  k points, SPIN DOWN:
 kpt#   1, nband= 32, wtk=  0.50000, kpt=  0.2500  0.2500  0.2500 (reduced coord)
  -2.03499   -2.03498   -2.03366   -2.03365   -1.00271   -1.00266   -1.00258   -1.00257
  -1.00245   -1.00244   -1.00125   -1.00123   -1.00123   -1.00119   -1.00115   -1.00115
  -0.55533   -0.54911   -0.54635   -0.53250   -0.22589   -0.21471   -0.20912   -0.20437
  -0.19620   -0.18268   -0.18032   -0.17670   -0.17156   -0.16684   -0.16648   -0.12905
 prteigrs : prtvol=0 or 1, do not print more k-points.


--- !EnergyTerms
iteration_state     : {dtset: 1, timimage: 1, image: 1, }
comment             : Components of total free energy in Hartree
kinetic             :  4.99034427168360E+01
hartree             :  8.51754461300744E+01
xc                  : -2.78008049936738E+01
Ewald energy        : -1.12290312699648E+02
psp_core            :  1.17964436789057E+01
local_psp           : -1.82958966747977E+02
spherical_terms     : -6.32437626695577E+01
total_energy        : -2.39418514585041E+02
total_energy_eV     : -6.51490910356455E+03
...


--- !EnergyTermsDC
iteration_state     : {dtset: 1, timimage: 1, image: 1, }
comment             : '"Double-counting" decomposition of free energy'
band_energy         : -4.91387196986805E+01
Ewald energy        : -1.12290312699648E+02
psp_core            :  1.17964436789057E+01
xc_dc               : -8.38829600112833E+01
spherical_terms     : -5.90297123787637E+00
total_energy_dc     : -2.39418519968583E+02
total_energy_dc_eV  : -6.51490925005818E+03
...


 Cartesian components of stress tensor (hartree/bohr^3)
  sigma(1 1)=  3.58494344E-05  sigma(3 2)=  0.00000000E+00
  sigma(2 2)=  3.58494344E-05  sigma(3 1)=  0.00000000E+00
  sigma(3 3)=  8.65913536E-05  sigma(2 1)=  2.59753906E-05

-Cartesian components of stress tensor (GPa)         [Pressure= -1.5524E+00 GPa]
- sigma(1 1)=  1.05472660E+00  sigma(3 2)=  0.00000000E+00
- sigma(2 2)=  1.05472660E+00  sigma(3 1)=  0.00000000E+00
- sigma(3 3)=  2.54760515E+00  sigma(2 1)=  7.64222249E-01


--------------------------------------------------------------------------------
 LINEAR COMBINATION OF CONSTRAINED DFT ENERGIES - CELL #    2/   3
--------------------------------------------------------------------------------

 Real(R)+Recip(G) space primitive vectors, cartesian coordinates (Bohr,Bohr^-1):
 R(1)= 13.0000000  0.0000000  0.0000000  G(1)=  0.0769231  0.0000000  0.0000000
 R(2)=  0.0000000 13.0000000  0.0000000  G(2)=  0.0000000  0.0769231  0.0000000
 R(3)=  0.0000000  0.0000000 13.0000000  G(3)=  0.0000000  0.0000000  0.0769231
 Unit cell volume ucvol=  2.1970000E+03 bohr^3
 Angles (23,13,12)=  9.00000000E+01  9.00000000E+01  9.00000000E+01 degrees

 Coarse grid specifications (used for wave-functions):

 getcut: wavevector=  0.0000  0.0000  0.0000  ngfft=  50  50  50
         ecut(hartree)=     17.000   => boxcut(ratio)=   2.07223

 Fine grid specifications (used for densities):

 getcut: wavevector=  0.0000  0.0000  0.0000  ngfft=  80  80  80
         ecut(hartree)=     40.000   => boxcut(ratio)=   2.16148

--- Pseudopotential description ------------------------------------------------
- pspini: atom type   1  psp file is /home/buildbot/ABINIT3/scope_gnu_10.2_paral/baguetl_chebfi-oracle/tests/Pspdir/Psdj_paw_pbe_std/Na.xml
- pspatm: opening atomic psp file    /home/buildbot/ABINIT3/scope_gnu_10.2_paral/baguetl_chebfi-oracle/tests/Pspdir/Psdj_paw_pbe_std/Na.xml
- pspatm : Reading pseudopotential header in XML form from /home/buildbot/ABINIT3/scope_gnu_10.2_paral/baguetl_chebfi-oracle/tests/Pspdir/Psdj_paw_pbe_std/Na.xml
 Pseudopotential format is: paw10
 basis_size (lnmax)=  4 (lmn_size=  8), orbitals=   0   0   1   1
 Spheres core radius: rc_sph= 1.60198715
 1 radial meshes are used:
  - mesh 1: r(i)=AA*[exp(BB*(i-1))-1], size=2001 , AA= 0.54109E-03 BB= 0.59520E-02
 Shapefunction is SIN type: shapef(r)=[sin(pi*r/rshp)/(pi*r/rshp)]**2
 Radius for shape functions =  1.40530451
 mmax= 2001
 Radial grid used for partial waves is grid 1
 Radial grid used for projectors is grid 1
 Radial grid used for (t)core density is grid 1
 Radial grid used for Vloc is grid 1
 Radial grid used for pseudo valence density is grid 1
 Mesh size for Vloc has been set to 1768 to avoid numerical noise.
 Compensation charge density is not taken into account in XC energy/potential
 pspatm: atomic psp has been read  and splines computed

- pspini: atom type   2  psp file is /home/buildbot/ABINIT3/scope_gnu_10.2_paral/baguetl_chebfi-oracle/tests/Pspdir/Psdj_paw_pbe_std/I.xml
- pspatm: opening atomic psp file    /home/buildbot/ABINIT3/scope_gnu_10.2_paral/baguetl_chebfi-oracle/tests/Pspdir/Psdj_paw_pbe_std/I.xml
- pspatm : Reading pseudopotential header in XML form from /home/buildbot/ABINIT3/scope_gnu_10.2_paral/baguetl_chebfi-oracle/tests/Pspdir/Psdj_paw_pbe_std/I.xml
 Pseudopotential format is: paw10
 basis_size (lnmax)=  4 (lmn_size=  8), orbitals=   0   0   1   1
 Spheres core radius: rc_sph= 2.30022271
 1 radial meshes are used:
  - mesh 1: r(i)=AA*[exp(BB*(i-1))-1], size=2000 , AA= 0.12610E-03 BB= 0.66836E-02
 Shapefunction is SIN type: shapef(r)=[sin(pi*r/rshp)/(pi*r/rshp)]**2
 Radius for shape functions =  2.10879093
 mmax= 2000
 Radial grid used for partial waves is grid 1
 Radial grid used for projectors is grid 1
 Radial grid used for (t)core density is grid 1
 Radial grid used for Vloc is grid 1
 Radial grid used for pseudo valence density is grid 1
 Mesh size for Vloc has been set to 1792 to avoid numerical noise.
 Compensation charge density is not taken into account in XC energy/potential
 pspatm: atomic psp has been read  and splines computed

   2.59167868E+04                                ecore*ucvol(ha*bohr**3)
--------------------------------------------------------------------------------

P newkpt: treating     32 bands with npw=    3667 for ikpt=   1 by node    0
P newkpt: treating     32 bands with npw=    3667 for ikpt=   2 by node    1
P newkpt: treating     32 bands with npw=    3667 for ikpt=   1 by node    3
P newkpt: treating     32 bands with npw=    3667 for ikpt=   2 by node    2
_setup2: Arith. and geom. avg. npw (full set) are    3667.000    3667.000

================================================================================

--- !BeginCycle
iteration_state: {dtset: 1, timimage: 1, image: 1, }
solver: {iscf: 17, nstep: 20, nline: 4, wfoptalg: 114, }
tolerances: {toldff: 1.00E-06, }
...

     iter   Etot(hartree)      deltaE(h)  residm     nres2    diffor    maxfor
 ETOT  1  -239.41517119530    -2.394E+02 2.666E-03 2.667E+00 2.589E-02 2.589E-02
 ETOT  2  -239.41446476859     7.064E-04 6.387E-08 5.001E-01 3.218E-03 2.693E-02
 ETOT  3  -239.41465767155    -1.929E-04 3.857E-05 8.944E-02 6.884E-04 2.624E-02
 ETOT  4  -239.41517679452    -5.191E-04 2.690E-06 3.139E-03 1.126E-03 2.511E-02
 ETOT  5  -239.41520098900    -2.419E-05 3.010E-06 2.437E-04 4.933E-04 2.462E-02
 ETOT  6  -239.41521368796    -1.270E-05 5.085E-08 4.065E-05 5.676E-05 2.457E-02
 ETOT  7  -239.41521411912    -4.312E-07 3.096E-08 1.754E-06 8.821E-05 2.448E-02
 ETOT  8  -239.41521428083    -1.617E-07 6.000E-11 3.406E-07 7.660E-06 2.449E-02
 ETOT  9  -239.41521428427    -3.438E-09 1.273E-11 3.265E-08 4.142E-06 2.449E-02
 ETOT 10  -239.41521428482    -5.481E-10 2.158E-11 1.522E-09 3.298E-07 2.449E-02
 ETOT 11  -239.41521428487    -5.701E-11 1.398E-13 2.195E-10 4.611E-07 2.449E-02

 At SCF step   11, forces are converged :
  for the second time, max diff in force=  4.611E-07 < toldff=  1.000E-06

 Cartesian components of stress tensor (hartree/bohr^3)
  sigma(1 1)=  3.67819951E-05  sigma(3 2)=  0.00000000E+00
  sigma(2 2)=  3.67819951E-05  sigma(3 1)=  0.00000000E+00
  sigma(3 3)=  8.68888832E-05  sigma(2 1)=  2.48988627E-05


--- !ResultsGS
iteration_state: {dtset: 1, timimage: 1, image: 1, }
comment   : Summary of ground state results
lattice_vectors:
- [ 13.0000000,   0.0000000,   0.0000000, ]
- [  0.0000000,  13.0000000,   0.0000000, ]
- [  0.0000000,   0.0000000,  13.0000000, ]
lattice_lengths: [  13.00000,   13.00000,   13.00000, ]
lattice_angles: [ 90.000,  90.000,  90.000, ] # degrees, (23, 13, 12)
lattice_volume:   2.1970000E+03
convergence: {deltae: -5.701E-11, res2:  2.195E-10, residm:  1.398E-13, diffor:  4.611E-07, }
etotal    :  -2.39415214E+02
entropy   :   0.00000000E+00
fermie    :  -1.29518627E-01
cartesian_stress_tensor: # hartree/bohr^3
- [  3.67819951E-05,   2.48988627E-05,   0.00000000E+00, ]
- [  2.48988627E-05,   3.67819951E-05,   0.00000000E+00, ]
- [  0.00000000E+00,   0.00000000E+00,   8.68888832E-05, ]
pressure_GPa:  -1.5736E+00
xred      :
- [ -3.0864E-02,  -3.0864E-02,  -6.5435E-31, Na]
- [  1.9851E-02,   4.8015E-01,   5.0000E-01, Na]
- [  4.8015E-01,   1.9851E-02,   5.0000E-01, Na]
- [  5.3086E-01,   5.3086E-01,  -6.5435E-31, Na]
- [  4.2000E-01,   8.0000E-02,  -6.5435E-31,  I]
- [  8.0000E-02,   4.2000E-01,  -6.5435E-31,  I]
- [ -2.1314E-02,  -2.1314E-02,   5.0000E-01,  I]
- [  5.2131E-01,   5.2131E-01,   5.0000E-01,  I]
cartesian_forces: # hartree/bohr
- [  2.97333655E-04,   2.97333655E-04,  -0.00000000E+00, ]
- [  2.19553041E-05,  -2.19553041E-05,   3.10689833E-29, ]
- [ -2.19553041E-05,   2.19553041E-05,  -3.10689833E-29, ]
- [ -2.97333655E-04,  -2.97333655E-04,  -0.00000000E+00, ]
- [  2.44879651E-02,  -2.44879651E-02,  -0.00000000E+00, ]
- [ -2.44879651E-02,   2.44879651E-02,  -0.00000000E+00, ]
- [ -2.48265164E-04,  -2.48265164E-04,  -2.48551867E-28, ]
- [  2.48265164E-04,   2.48265164E-04,   2.48551867E-28, ]
force_length_stats: {min:   3.10494888E-05, max:   3.46312124E-02, mean:   8.85846378E-03, }
...

 Integrated electronic and magnetization densities in atomic spheres:
 ---------------------------------------------------------------------
 Radius=ratsph(iatom), smearing ratsm=  0.0000. Diff(up-dn)=approximate z local magnetic moment.
 Atom    Radius    up_density   dn_density  Total(up+dn)  Diff(up-dn)
    1   1.60199     3.809185     3.809199      7.618384    -0.000014
    2   1.60199     3.807469     3.807467      7.614936     0.000002
    3   1.60199     3.807469     3.807467      7.614936     0.000002
    4   1.60199     3.809185     3.809199      7.618384    -0.000014
    5   2.30022     1.999286     2.005362      4.004648    -0.006076
    6   2.30022     1.999286     2.005362      4.004648    -0.006076
    7   2.30022     2.001806     2.002112      4.003918    -0.000306
    8   2.30022     2.001806     2.002112      4.003918    -0.000306
 ---------------------------------------------------------------------
  Sum:             23.235492    23.248281     46.483773    -0.012789
 Total magnetization (from the atomic spheres):            -0.012789
 Total magnetization (exact up - dn):                      -0.025000

 PAW TEST:
 ==== Compensation charge inside spheres ============
 The following values must be close to each other ...
 Compensation charge over spherical meshes =     11.525111923948160
 Compensation charge over fine fft grid    =     11.525216184814154

 ==== Results concerning PAW augmentation regions ====

 Total pseudopotential strength Dij (hartree):
 Atom #  1 - Spin component 1
  -2.05258   0.22867   0.00107   0.00000   0.00107  -0.00011   0.00000  -0.00011
   0.22867  -0.01908  -0.00017   0.00000  -0.00017   0.00002   0.00000   0.00002
   0.00107  -0.00017  -1.63684   0.00000   0.00002   0.11280   0.00000  -0.00000
   0.00000   0.00000   0.00000  -1.63680   0.00000   0.00000   0.11279   0.00000
   0.00107  -0.00017   0.00002   0.00000  -1.63684  -0.00000   0.00000   0.11280
  -0.00011   0.00002   0.11280   0.00000  -0.00000  -0.00594   0.00000   0.00000
   0.00000   0.00000   0.00000   0.11279   0.00000   0.00000  -0.00594   0.00000
  -0.00011   0.00002  -0.00000   0.00000   0.11280   0.00000   0.00000  -0.00594
 Atom #  1 - Spin component 2
  -2.05258   0.22867   0.00107   0.00000   0.00107  -0.00011   0.00000  -0.00011
   0.22867  -0.01908  -0.00017   0.00000  -0.00017   0.00002   0.00000   0.00002
   0.00107  -0.00017  -1.63684   0.00000   0.00002   0.11280   0.00000  -0.00000
   0.00000   0.00000   0.00000  -1.63680   0.00000   0.00000   0.11279   0.00000
   0.00107  -0.00017   0.00002   0.00000  -1.63684  -0.00000   0.00000   0.11280
  -0.00011   0.00002   0.11280   0.00000  -0.00000  -0.00594   0.00000   0.00000
   0.00000   0.00000   0.00000   0.11279   0.00000   0.00000  -0.00594   0.00000
  -0.00011   0.00002  -0.00000   0.00000   0.11280   0.00000   0.00000  -0.00594
 Atom #  8 - Spin component 1
  -1.04053   2.45603   0.00000   0.00000   0.00000  -0.00000   0.00000  -0.00000
   2.45603  -7.38129  -0.00000   0.00000  -0.00000   0.00002   0.00000   0.00002
   0.00000  -0.00000  -0.33061   0.00000  -0.00000   1.33659   0.00000   0.00000
   0.00000   0.00000   0.00000  -0.33061   0.00000   0.00000   1.33657   0.00000
   0.00000  -0.00000  -0.00000   0.00000  -0.33061   0.00000   0.00000   1.33659
  -0.00000   0.00002   1.33659   0.00000   0.00000  -6.50992   0.00000  -0.00002
   0.00000   0.00000   0.00000   1.33657   0.00000   0.00000  -6.50980   0.00000
  -0.00000   0.00002   0.00000   0.00000   1.33659  -0.00002   0.00000  -6.50992
 Atom #  8 - Spin component 2
  -1.04053   2.45602   0.00000   0.00000   0.00000  -0.00000   0.00000  -0.00000
   2.45602  -7.38128  -0.00000   0.00000  -0.00000   0.00002   0.00000   0.00002
   0.00000  -0.00000  -0.33061   0.00000  -0.00000   1.33659   0.00000   0.00000
   0.00000   0.00000   0.00000  -0.33060   0.00000   0.00000   1.33656   0.00000
   0.00000  -0.00000  -0.00000   0.00000  -0.33061   0.00000   0.00000   1.33659
  -0.00000   0.00002   1.33659   0.00000   0.00000  -6.50991   0.00000  -0.00002
   0.00000   0.00000   0.00000   1.33656   0.00000   0.00000  -6.50978   0.00000
  -0.00000   0.00002   0.00000   0.00000   1.33659  -0.00002   0.00000  -6.50991


 Augmentation waves occupancies Rhoij:
 Atom #  1 - Spin component 1
   1.00913   0.03804  -0.00007   0.00000  -0.00007  -0.00346   0.00000  -0.00346
   0.03804   0.14783  -0.00226   0.00000  -0.00226   0.04585   0.00000   0.04585
  -0.00007  -0.00226   1.00643   0.00000   0.00000   0.03174   0.00000   0.00027
   0.00000   0.00000   0.00000   1.00637   0.00000   0.00000   0.03060   0.00000
  -0.00007  -0.00226   0.00000   0.00000   1.00643   0.00027   0.00000   0.03174
  -0.00346   0.04585   0.03174   0.00000   0.00027   0.16402   0.00000   0.02151
   0.00000   0.00000   0.00000   0.03060   0.00000   0.00000   0.15076   0.00000
  -0.00346   0.04585   0.00027   0.00000   0.03174   0.02151   0.00000   0.16402
 Atom #  1 - Spin component 2
   1.00913   0.03803  -0.00007   0.00000  -0.00007  -0.00346   0.00000  -0.00346
   0.03803   0.14791  -0.00225   0.00000  -0.00225   0.04556   0.00000   0.04556
  -0.00007  -0.00225   1.00643   0.00000   0.00000   0.03173   0.00000   0.00027
   0.00000   0.00000   0.00000   1.00637   0.00000   0.00000   0.03060   0.00000
  -0.00007  -0.00225   0.00000   0.00000   1.00643   0.00027   0.00000   0.03173
  -0.00346   0.04556   0.03173   0.00000   0.00027   0.16435   0.00000   0.02142
   0.00000   0.00000   0.00000   0.03060   0.00000   0.00000   0.15078   0.00000
  -0.00346   0.04556   0.00027   0.00000   0.03173   0.02142   0.00000   0.16435
 Atom #  8 - Spin component 1
   0.97691   0.00379  -0.00029   0.00000  -0.00029  -0.00000   0.00000  -0.00000
   0.00379   0.00007   0.00003   0.00000   0.00003   0.00000   0.00000   0.00000
  -0.00029   0.00003   0.89202   0.00000   0.00081   0.00399   0.00000  -0.00004
   0.00000   0.00000   0.00000   0.88905   0.00000   0.00000   0.00403   0.00000
  -0.00029   0.00003   0.00081   0.00000   0.89202  -0.00004   0.00000   0.00399
  -0.00000   0.00000   0.00399   0.00000  -0.00004   0.00002   0.00000   0.00000
   0.00000   0.00000   0.00000   0.00403   0.00000   0.00000   0.00002   0.00000
  -0.00000   0.00000  -0.00004   0.00000   0.00399   0.00000   0.00000   0.00002
 Atom #  8 - Spin component 2
   0.97692   0.00379  -0.00027   0.00000  -0.00027  -0.00000   0.00000  -0.00000
   0.00379   0.00007   0.00003   0.00000   0.00003   0.00000   0.00000   0.00000
  -0.00027   0.00003   0.89213   0.00000   0.00081   0.00399   0.00000  -0.00004
   0.00000   0.00000   0.00000   0.88948   0.00000   0.00000   0.00403   0.00000
  -0.00027   0.00003   0.00081   0.00000   0.89213  -0.00004   0.00000   0.00399
  -0.00000   0.00000   0.00399   0.00000  -0.00004   0.00002   0.00000   0.00000
   0.00000   0.00000   0.00000   0.00403   0.00000   0.00000   0.00002   0.00000
  -0.00000   0.00000  -0.00004   0.00000   0.00399   0.00000   0.00000   0.00002


================================================================================

 ----iterations are completed or convergence reached----

 Mean square residual over all n,k,spin=   17.806E-15; max=  13.975E-14
 reduced coordinates (array xred) for    8 atoms
      -0.030863689067     -0.030863689067     -0.000000000000
       0.019850978743      0.480149021261      0.500000000000
       0.480149021261      0.019850978743      0.500000000000
       0.530863689070      0.530863689070     -0.000000000000
       0.420000000002      0.080000000001     -0.000000000000
       0.080000000001      0.420000000002     -0.000000000000
      -0.021313787447     -0.021313787447      0.500000000000
       0.521313787451      0.521313787451      0.500000000000
 rms dE/dt=  1.2998E-01; max dE/dt=  3.1834E-01; dE/dt below (all hartree)
    1      -0.003865337516     -0.003865337516      0.000000000000
    2      -0.000285418953      0.000285418953     -0.000000000000
    3       0.000285418953     -0.000285418953      0.000000000000
    4       0.003865337516      0.003865337516      0.000000000000
    5      -0.318343546381      0.318343546381      0.000000000000
    6       0.318343546381     -0.318343546381      0.000000000000
    7       0.003227447133      0.003227447133      0.000000000000
    8      -0.003227447133     -0.003227447133     -0.000000000000

 cartesian coordinates (angstrom) at end:
    1     -0.21232069075444    -0.21232069075444    -0.00000000000000
    2      0.13656091174356     3.30309094411208     3.43965185583500
    3      3.30309094411208     0.13656091174356     3.43965185583500
    4      3.65197254661008     3.65197254661008    -0.00000000000000
    5      2.88930755891172     0.55034429694392    -0.00000000000000
    6      0.55034429694392     2.88930755891172    -0.00000000000000
    7     -0.14662401709733    -0.14662401709733     3.43965185583500
    8      3.58627587295297     3.58627587295297     3.43965185583500

 cartesian forces (hartree/bohr) at end:
    1      0.00029733365508     0.00029733365508    -0.00000000000000
    2      0.00002195530406    -0.00002195530406     0.00000000000000
    3     -0.00002195530406     0.00002195530406    -0.00000000000000
    4     -0.00029733365508    -0.00029733365508    -0.00000000000000
    5      0.02448796510627    -0.02448796510627    -0.00000000000000
    6     -0.02448796510627     0.02448796510627    -0.00000000000000
    7     -0.00024826516404    -0.00024826516404    -0.00000000000000
    8      0.00024826516404     0.00024826516404     0.00000000000000
 frms,max,avg= 9.9984245E-03 2.4487965E-02   0.000E+00  0.000E+00  0.000E+00 h/b

 cartesian forces (eV/Angstrom) at end:
    1      0.01528951000062     0.01528951000062    -0.00000000000000
    2      0.00112898703266    -0.00112898703266     0.00000000000000
    3     -0.00112898703266     0.00112898703266    -0.00000000000000
    4     -0.01528951000062    -0.01528951000062    -0.00000000000000
    5      1.25922168914349    -1.25922168914349    -0.00000000000000
    6     -1.25922168914349     1.25922168914349    -0.00000000000000
    7     -0.01276630695370    -0.01276630695370    -0.00000000000000
    8      0.01276630695370     0.01276630695370     0.00000000000000
 frms,max,avg= 5.1413962E-01 1.2592217E+00   0.000E+00  0.000E+00  0.000E+00 e/A
 length scales= 13.000000000000 13.000000000000 13.000000000000 bohr
              =  6.879303711670  6.879303711670  6.879303711670 angstroms
 Fermi (or HOMO) energy (hartree) =  -0.12952   Average Vxc (hartree)=  -0.25483
 Eigenvalues (hartree) for nkpt=   2  k points, SPIN UP:
 kpt#   1, nband= 32, wtk=  0.50000, kpt=  0.2500  0.2500  0.2500 (reduced coord)
  -2.03507   -2.03506   -2.03322   -2.03321   -1.00281   -1.00276   -1.00267   -1.00267
  -1.00251   -1.00251   -1.00080   -1.00078   -1.00078   -1.00074   -1.00073   -1.00073
  -0.55583   -0.54875   -0.54599   -0.53310   -0.22630   -0.21475   -0.20878   -0.20456
  -0.19582   -0.18241   -0.18016   -0.17684   -0.17143   -0.16709   -0.16641   -0.12952
 prteigrs : prtvol=0 or 1, do not print more k-points.

 Eigenvalues (hartree) for nkpt=   2  k points, SPIN DOWN:
 kpt#   1, nband= 32, wtk=  0.50000, kpt=  0.2500  0.2500  0.2500 (reduced coord)
  -2.03507   -2.03507   -2.03322   -2.03321   -1.00281   -1.00276   -1.00267   -1.00267
  -1.00251   -1.00251   -1.00080   -1.00078   -1.00078   -1.00074   -1.00073   -1.00073
  -0.55607   -0.54877   -0.54602   -0.53335   -0.22666   -0.21484   -0.20880   -0.20466
  -0.19584   -0.18246   -0.18021   -0.17693   -0.17147   -0.16719   -0.16647   -0.13005
 prteigrs : prtvol=0 or 1, do not print more k-points.


--- !EnergyTerms
iteration_state     : {dtset: 1, timimage: 1, image: 1, }
comment             : Components of total free energy in Hartree
kinetic             :  4.98961989655840E+01
hartree             :  8.51760290603305E+01
xc                  : -2.77930868996407E+01
Ewald energy        : -1.12290312699648E+02
psp_core            :  1.17964436789057E+01
local_psp           : -1.82958465560509E+02
spherical_terms     : -6.32420176497196E+01
total_energy        : -2.39415211104697E+02
total_energy_eV     : -6.51481921129286E+03
...


--- !EnergyTermsDC
iteration_state     : {dtset: 1, timimage: 1, image: 1, }
comment             : '"Double-counting" decomposition of free energy'
band_energy         : -4.91328632655670E+01
Ewald energy        : -1.12290312699648E+02
psp_core            :  1.17964436789057E+01
xc_dc               : -8.38858005481438E+01
spherical_terms     : -5.90268145041864E+00
total_energy_dc     : -2.39415214284872E+02
total_energy_dc_eV  : -6.51481929782981E+03
...


 Cartesian components of stress tensor (hartree/bohr^3)
  sigma(1 1)=  3.67819951E-05  sigma(3 2)=  0.00000000E+00
  sigma(2 2)=  3.67819951E-05  sigma(3 1)=  0.00000000E+00
  sigma(3 3)=  8.68888832E-05  sigma(2 1)=  2.48988627E-05

-Cartesian components of stress tensor (GPa)         [Pressure= -1.5736E+00 GPa]
- sigma(1 1)=  1.08216347E+00  sigma(3 2)=  0.00000000E+00
- sigma(2 2)=  1.08216347E+00  sigma(3 1)=  0.00000000E+00
- sigma(3 3)=  2.55635877E+00  sigma(2 1)=  7.32549710E-01


--------------------------------------------------------------------------------
 LINEAR COMBINATION OF CONSTRAINED DFT ENERGIES - CELL #    3/   3
--------------------------------------------------------------------------------

 Real(R)+Recip(G) space primitive vectors, cartesian coordinates (Bohr,Bohr^-1):
 R(1)= 13.0000000  0.0000000  0.0000000  G(1)=  0.0769231  0.0000000  0.0000000
 R(2)=  0.0000000 13.0000000  0.0000000  G(2)=  0.0000000  0.0769231  0.0000000
 R(3)=  0.0000000  0.0000000 13.0000000  G(3)=  0.0000000  0.0000000  0.0769231
 Unit cell volume ucvol=  2.1970000E+03 bohr^3
 Angles (23,13,12)=  9.00000000E+01  9.00000000E+01  9.00000000E+01 degrees

 Coarse grid specifications (used for wave-functions):

 getcut: wavevector=  0.0000  0.0000  0.0000  ngfft=  50  50  50
         ecut(hartree)=     17.000   => boxcut(ratio)=   2.07223

 Fine grid specifications (used for densities):

 getcut: wavevector=  0.0000  0.0000  0.0000  ngfft=  80  80  80
         ecut(hartree)=     40.000   => boxcut(ratio)=   2.16148

--- Pseudopotential description ------------------------------------------------
- pspini: atom type   1  psp file is /home/buildbot/ABINIT3/scope_gnu_10.2_paral/baguetl_chebfi-oracle/tests/Pspdir/Psdj_paw_pbe_std/Na.xml
- pspatm: opening atomic psp file    /home/buildbot/ABINIT3/scope_gnu_10.2_paral/baguetl_chebfi-oracle/tests/Pspdir/Psdj_paw_pbe_std/Na.xml
- pspatm : Reading pseudopotential header in XML form from /home/buildbot/ABINIT3/scope_gnu_10.2_paral/baguetl_chebfi-oracle/tests/Pspdir/Psdj_paw_pbe_std/Na.xml
 Pseudopotential format is: paw10
 basis_size (lnmax)=  4 (lmn_size=  8), orbitals=   0   0   1   1
 Spheres core radius: rc_sph= 1.60198715
 1 radial meshes are used:
  - mesh 1: r(i)=AA*[exp(BB*(i-1))-1], size=2001 , AA= 0.54109E-03 BB= 0.59520E-02
 Shapefunction is SIN type: shapef(r)=[sin(pi*r/rshp)/(pi*r/rshp)]**2
 Radius for shape functions =  1.40530451
 mmax= 2001
 Radial grid used for partial waves is grid 1
 Radial grid used for projectors is grid 1
 Radial grid used for (t)core density is grid 1
 Radial grid used for Vloc is grid 1
 Radial grid used for pseudo valence density is grid 1
 Mesh size for Vloc has been set to 1768 to avoid numerical noise.
 Compensation charge density is not taken into account in XC energy/potential
 pspatm: atomic psp has been read  and splines computed

- pspini: atom type   2  psp file is /home/buildbot/ABINIT3/scope_gnu_10.2_paral/baguetl_chebfi-oracle/tests/Pspdir/Psdj_paw_pbe_std/I.xml
- pspatm: opening atomic psp file    /home/buildbot/ABINIT3/scope_gnu_10.2_paral/baguetl_chebfi-oracle/tests/Pspdir/Psdj_paw_pbe_std/I.xml
- pspatm : Reading pseudopotential header in XML form from /home/buildbot/ABINIT3/scope_gnu_10.2_paral/baguetl_chebfi-oracle/tests/Pspdir/Psdj_paw_pbe_std/I.xml
 Pseudopotential format is: paw10
 basis_size (lnmax)=  4 (lmn_size=  8), orbitals=   0   0   1   1
 Spheres core radius: rc_sph= 2.30022271
 1 radial meshes are used:
  - mesh 1: r(i)=AA*[exp(BB*(i-1))-1], size=2000 , AA= 0.12610E-03 BB= 0.66836E-02
 Shapefunction is SIN type: shapef(r)=[sin(pi*r/rshp)/(pi*r/rshp)]**2
 Radius for shape functions =  2.10879093
 mmax= 2000
 Radial grid used for partial waves is grid 1
 Radial grid used for projectors is grid 1
 Radial grid used for (t)core density is grid 1
 Radial grid used for Vloc is grid 1
 Radial grid used for pseudo valence density is grid 1
 Mesh size for Vloc has been set to 1792 to avoid numerical noise.
 Compensation charge density is not taken into account in XC energy/potential
 pspatm: atomic psp has been read  and splines computed

   2.59167868E+04                                ecore*ucvol(ha*bohr**3)
--------------------------------------------------------------------------------

P newkpt: treating     32 bands with npw=    3667 for ikpt=   1 by node    0
P newkpt: treating     32 bands with npw=    3667 for ikpt=   2 by node    1
P newkpt: treating     32 bands with npw=    3667 for ikpt=   1 by node    3
P newkpt: treating     32 bands with npw=    3667 for ikpt=   2 by node    2
_setup2: Arith. and geom. avg. npw (full set) are    3667.000    3667.000

================================================================================

--- !BeginCycle
iteration_state: {dtset: 1, timimage: 1, image: 1, }
solver: {iscf: 17, nstep: 20, nline: 4, wfoptalg: 114, }
tolerances: {toldff: 1.00E-06, }
...

     iter   Etot(hartree)      deltaE(h)  residm     nres2    diffor    maxfor
 ETOT  1  -239.41126065878    -2.394E+02 2.666E-03 2.612E+00 2.520E-02 2.520E-02
 ETOT  2  -239.41112626397     1.344E-04 4.823E-08 4.908E-01 3.202E-03 2.625E-02
 ETOT  3  -239.41136217689    -2.359E-04 2.554E-05 8.769E-02 6.738E-04 2.557E-02
 ETOT  4  -239.41186234683    -5.002E-04 1.896E-06 2.971E-03 1.093E-03 2.448E-02
 ETOT  5  -239.41188681015    -2.446E-05 2.037E-06 2.150E-04 4.369E-04 2.405E-02
 ETOT  6  -239.41189759624    -1.079E-05 3.716E-08 3.531E-05 6.176E-05 2.398E-02
 ETOT  7  -239.41189784114    -2.449E-07 2.065E-08 1.583E-06 7.033E-05 2.392E-02
 ETOT  8  -239.41189797345    -1.323E-07 6.234E-11 2.866E-07 7.326E-06 2.392E-02
 ETOT  9  -239.41189797841    -4.957E-09 4.600E-12 2.744E-08 4.060E-06 2.392E-02
 ETOT 10  -239.41189797878    -3.715E-10 2.307E-11 1.247E-09 3.779E-07 2.392E-02
 ETOT 11  -239.41189797886    -7.975E-11 5.258E-13 2.388E-10 2.938E-07 2.392E-02

 At SCF step   11, forces are converged :
  for the second time, max diff in force=  2.938E-07 < toldff=  1.000E-06

 Cartesian components of stress tensor (hartree/bohr^3)
  sigma(1 1)=  3.77144521E-05  sigma(3 2)=  0.00000000E+00
  sigma(2 2)=  3.77144521E-05  sigma(3 1)=  0.00000000E+00
  sigma(3 3)=  8.71947710E-05  sigma(2 1)=  2.38220611E-05


--- !ResultsGS
iteration_state: {dtset: 1, timimage: 1, image: 1, }
comment   : Summary of ground state results
lattice_vectors:
- [ 13.0000000,   0.0000000,   0.0000000, ]
- [  0.0000000,  13.0000000,   0.0000000, ]
- [  0.0000000,   0.0000000,  13.0000000, ]
lattice_lengths: [  13.00000,   13.00000,   13.00000, ]
lattice_angles: [ 90.000,  90.000,  90.000, ] # degrees, (23, 13, 12)
lattice_volume:   2.1970000E+03
convergence: {deltae: -7.975E-11, res2:  2.388E-10, residm:  5.258E-13, diffor:  2.938E-07, }
etotal    :  -2.39411898E+02
entropy   :   0.00000000E+00
fermie    :  -1.29989180E-01
cartesian_stress_tensor: # hartree/bohr^3
- [  3.77144521E-05,   2.38220611E-05,   0.00000000E+00, ]
- [  2.38220611E-05,   3.77144521E-05,   0.00000000E+00, ]
- [  0.00000000E+00,   0.00000000E+00,   8.71947710E-05, ]
pressure_GPa:  -1.5949E+00
xred      :
- [ -3.0864E-02,  -3.0864E-02,  -6.5435E-31, Na]
- [  1.9851E-02,   4.8015E-01,   5.0000E-01, Na]
- [  4.8015E-01,   1.9851E-02,   5.0000E-01, Na]
- [  5.3086E-01,   5.3086E-01,  -6.5435E-31, Na]
- [  4.2000E-01,   8.0000E-02,  -6.5435E-31,  I]
- [  8.0000E-02,   4.2000E-01,  -6.5435E-31,  I]
- [ -2.1314E-02,  -2.1314E-02,   5.0000E-01,  I]
- [  5.2131E-01,   5.2131E-01,   5.0000E-01,  I]
cartesian_forces: # hartree/bohr
- [  3.09961132E-04,   3.09961132E-04,  -0.00000000E+00, ]
- [  2.09712741E-05,  -2.09712741E-05,   1.55344917E-29, ]
- [ -2.09712741E-05,   2.09712741E-05,  -1.55344917E-29, ]
- [ -3.09961132E-04,  -3.09961132E-04,  -0.00000000E+00, ]
- [  2.39211839E-02,  -2.39211839E-02,   2.48551867E-28, ]
- [ -2.39211839E-02,   2.39211839E-02,  -2.48551867E-28, ]
- [ -2.54879754E-04,  -2.54879754E-04,  -0.00000000E+00, ]
- [  2.54879754E-04,   2.54879754E-04,  -0.00000000E+00, ]
force_length_stats: {min:   2.96578603E-05, max:   3.38296628E-02, mean:   8.66453157E-03, }
...

 Integrated electronic and magnetization densities in atomic spheres:
 ---------------------------------------------------------------------
 Radius=ratsph(iatom), smearing ratsm=  0.0000. Diff(up-dn)=approximate z local magnetic moment.
 Atom    Radius    up_density   dn_density  Total(up+dn)  Diff(up-dn)
    1   1.60199     3.809146     3.809174      7.618320    -0.000028
    2   1.60199     3.807444     3.807441      7.614885     0.000003
    3   1.60199     3.807444     3.807441      7.614885     0.000003
    4   1.60199     3.809146     3.809174      7.618320    -0.000028
    5   2.30022     1.995344     2.007506      4.002850    -0.012162
    6   2.30022     1.995344     2.007506      4.002850    -0.012162
    7   2.30022     2.001249     2.001872      4.003121    -0.000624
    8   2.30022     2.001249     2.001872      4.003121    -0.000624
 ---------------------------------------------------------------------
  Sum:             23.226366    23.251986     46.478352    -0.025620
 Total magnetization (from the atomic spheres):            -0.025620
 Total magnetization (exact up - dn):                      -0.050000

 PAW TEST:
 ==== Compensation charge inside spheres ============
 The following values must be close to each other ...
 Compensation charge over spherical meshes =     11.525099351994523
 Compensation charge over fine fft grid    =     11.525203616111289

 ==== Results concerning PAW augmentation regions ====

 Total pseudopotential strength Dij (hartree):
 Atom #  1 - Spin component 1
  -2.05261   0.22868   0.00107   0.00000   0.00107  -0.00011   0.00000  -0.00011
   0.22868  -0.01909  -0.00017   0.00000  -0.00017   0.00002   0.00000   0.00002
   0.00107  -0.00017  -1.63689   0.00000   0.00002   0.11280   0.00000  -0.00000
   0.00000   0.00000   0.00000  -1.63684   0.00000   0.00000   0.11280   0.00000
   0.00107  -0.00017   0.00002   0.00000  -1.63689  -0.00000   0.00000   0.11280
  -0.00011   0.00002   0.11280   0.00000  -0.00000  -0.00594   0.00000   0.00000
   0.00000   0.00000   0.00000   0.11280   0.00000   0.00000  -0.00594   0.00000
  -0.00011   0.00002  -0.00000   0.00000   0.11280   0.00000   0.00000  -0.00594
 Atom #  1 - Spin component 2
  -2.05261   0.22868   0.00108   0.00000   0.00108  -0.00011   0.00000  -0.00011
   0.22868  -0.01909  -0.00017   0.00000  -0.00017   0.00002   0.00000   0.00002
   0.00108  -0.00017  -1.63689   0.00000   0.00002   0.11280   0.00000  -0.00000
   0.00000   0.00000   0.00000  -1.63684   0.00000   0.00000   0.11280   0.00000
   0.00108  -0.00017   0.00002   0.00000  -1.63689  -0.00000   0.00000   0.11280
  -0.00011   0.00002   0.11280   0.00000  -0.00000  -0.00594   0.00000   0.00000
   0.00000   0.00000   0.00000   0.11280   0.00000   0.00000  -0.00594   0.00000
  -0.00011   0.00002  -0.00000   0.00000   0.11280   0.00000   0.00000  -0.00594
 Atom #  8 - Spin component 1
  -1.04064   2.45633  -0.00000   0.00000  -0.00000  -0.00000   0.00000  -0.00000
   2.45633  -7.38209  -0.00000   0.00000  -0.00000   0.00002   0.00000   0.00002
  -0.00000  -0.00000  -0.33063   0.00000  -0.00000   1.33670   0.00000   0.00000
   0.00000   0.00000   0.00000  -0.33063   0.00000   0.00000   1.33668   0.00000
  -0.00000  -0.00000  -0.00000   0.00000  -0.33063   0.00000   0.00000   1.33670
  -0.00000   0.00002   1.33670   0.00000   0.00000  -6.51045   0.00000  -0.00002
   0.00000   0.00000   0.00000   1.33668   0.00000   0.00000  -6.51032   0.00000
  -0.00000   0.00002   0.00000   0.00000   1.33670  -0.00002   0.00000  -6.51045
 Atom #  8 - Spin component 2
  -1.04064   2.45632   0.00000   0.00000   0.00000  -0.00001   0.00000  -0.00001
   2.45632  -7.38207  -0.00000   0.00000  -0.00000   0.00002   0.00000   0.00002
   0.00000  -0.00000  -0.33063   0.00000  -0.00000   1.33670   0.00000   0.00000
   0.00000   0.00000   0.00000  -0.33063   0.00000   0.00000   1.33667   0.00000
   0.00000  -0.00000  -0.00000   0.00000  -0.33063   0.00000   0.00000   1.33670
  -0.00001   0.00002   1.33670   0.00000   0.00000  -6.51043   0.00000  -0.00002
   0.00000   0.00000   0.00000   1.33667   0.00000   0.00000  -6.51028   0.00000
  -0.00001   0.00002   0.00000   0.00000   1.33670  -0.00002   0.00000  -6.51043


 Augmentation waves occupancies Rhoij:
 Atom #  1 - Spin component 1
   1.00913   0.03803  -0.00007   0.00000  -0.00007  -0.00347   0.00000  -0.00347
   0.03803   0.14726  -0.00227   0.00000  -0.00227   0.04609   0.00000   0.04609
  -0.00007  -0.00227   1.00643   0.00000   0.00000   0.03179   0.00000   0.00030
   0.00000   0.00000   0.00000   1.00636   0.00000   0.00000   0.03049   0.00000
  -0.00007  -0.00227   0.00000   0.00000   1.00643   0.00030   0.00000   0.03179
  -0.00347   0.04609   0.03179   0.00000   0.00030   0.16302   0.00000   0.02158
   0.00000   0.00000   0.00000   0.03049   0.00000   0.00000   0.15092   0.00000
  -0.00347   0.04609   0.00030   0.00000   0.03179   0.02158   0.00000   0.16302
 Atom #  1 - Spin component 2
   1.00913   0.03803  -0.00007   0.00000  -0.00007  -0.00347   0.00000  -0.00347
   0.03803   0.14741  -0.00226   0.00000  -0.00226   0.04552   0.00000   0.04552
  -0.00007  -0.00226   1.00643   0.00000   0.00000   0.03177   0.00000   0.00030
   0.00000   0.00000   0.00000   1.00636   0.00000   0.00000   0.03048   0.00000
  -0.00007  -0.00226   0.00000   0.00000   1.00643   0.00030   0.00000   0.03177
  -0.00347   0.04552   0.03177   0.00000   0.00030   0.16368   0.00000   0.02140
   0.00000   0.00000   0.00000   0.03048   0.00000   0.00000   0.15095   0.00000
  -0.00347   0.04552   0.00030   0.00000   0.03177   0.02140   0.00000   0.16368
 Atom #  8 - Spin component 1
   0.97689   0.00379  -0.00031   0.00000  -0.00031  -0.00000   0.00000  -0.00000
   0.00379   0.00007   0.00004   0.00000   0.00004   0.00000   0.00000   0.00000
  -0.00031   0.00004   0.89185   0.00000   0.00080   0.00398   0.00000  -0.00004
   0.00000   0.00000   0.00000   0.88824   0.00000   0.00000   0.00403   0.00000
  -0.00031   0.00004   0.00080   0.00000   0.89185  -0.00004   0.00000   0.00398
  -0.00000   0.00000   0.00398   0.00000  -0.00004   0.00002   0.00000   0.00000
   0.00000   0.00000   0.00000   0.00403   0.00000   0.00000   0.00002   0.00000
  -0.00000   0.00000  -0.00004   0.00000   0.00398   0.00000   0.00000   0.00002
 Atom #  8 - Spin component 2
   0.97691   0.00380  -0.00027   0.00000  -0.00027  -0.00000   0.00000  -0.00000
   0.00380   0.00007   0.00003   0.00000   0.00003   0.00000   0.00000   0.00000
  -0.00027   0.00003   0.89207   0.00000   0.00079   0.00399   0.00000  -0.00004
   0.00000   0.00000   0.00000   0.88912   0.00000   0.00000   0.00404   0.00000
  -0.00027   0.00003   0.00079   0.00000   0.89207  -0.00004   0.00000   0.00399
  -0.00000   0.00000   0.00399   0.00000  -0.00004   0.00002   0.00000   0.00000
   0.00000   0.00000   0.00000   0.00404   0.00000   0.00000   0.00002   0.00000
  -0.00000   0.00000  -0.00004   0.00000   0.00399   0.00000   0.00000   0.00002


================================================================================

 ----iterations are completed or convergence reached----

 Mean square residual over all n,k,spin=   51.548E-15; max=  52.583E-14
 reduced coordinates (array xred) for    8 atoms
      -0.030863689067     -0.030863689067     -0.000000000000
       0.019850978743      0.480149021261      0.500000000000
       0.480149021261      0.019850978743      0.500000000000
       0.530863689070      0.530863689070     -0.000000000000
       0.420000000002      0.080000000001     -0.000000000000
       0.080000000001      0.420000000002     -0.000000000000
      -0.021313787447     -0.021313787447      0.500000000000
       0.521313787451      0.521313787451      0.500000000000
 rms dE/dt=  1.2697E-01; max dE/dt=  3.1098E-01; dE/dt below (all hartree)
    1      -0.004029494715     -0.004029494715      0.000000000000
    2      -0.000272626564      0.000272626564     -0.000000000000
    3       0.000272626564     -0.000272626564      0.000000000000
    4       0.004029494715      0.004029494715      0.000000000000
    5      -0.310975391276      0.310975391276     -0.000000000000
    6       0.310975391276     -0.310975391276      0.000000000000
    7       0.003313436804      0.003313436804      0.000000000000
    8      -0.003313436804     -0.003313436804      0.000000000000

 cartesian coordinates (angstrom) at end:
    1     -0.21232069075444    -0.21232069075444    -0.00000000000000
    2      0.13656091174356     3.30309094411208     3.43965185583500
    3      3.30309094411208     0.13656091174356     3.43965185583500
    4      3.65197254661008     3.65197254661008    -0.00000000000000
    5      2.88930755891172     0.55034429694392    -0.00000000000000
    6      0.55034429694392     2.88930755891172    -0.00000000000000
    7     -0.14662401709733    -0.14662401709733     3.43965185583500
    8      3.58627587295297     3.58627587295297     3.43965185583500

 cartesian forces (hartree/bohr) at end:
    1      0.00030996113192     0.00030996113192    -0.00000000000000
    2      0.00002097127413    -0.00002097127413     0.00000000000000
    3     -0.00002097127413     0.00002097127413    -0.00000000000000
    4     -0.00030996113192    -0.00030996113192    -0.00000000000000
    5      0.02392118394430    -0.02392118394430     0.00000000000000
    6     -0.02392118394430     0.02392118394430    -0.00000000000000
    7     -0.00025487975416    -0.00025487975416    -0.00000000000000
    8      0.00025487975416     0.00025487975416    -0.00000000000000
 frms,max,avg= 9.7671603E-03 2.3921184E-02   0.000E+00  0.000E+00  0.000E+00 h/b

 cartesian forces (eV/Angstrom) at end:
    1      0.01593884091290     0.01593884091290    -0.00000000000000
    2      0.00107838618347    -0.00107838618347     0.00000000000000
    3     -0.00107838618347     0.00107838618347    -0.00000000000000
    4     -0.01593884091290    -0.01593884091290    -0.00000000000000
    5      1.23007663241686    -1.23007663241686     0.00000000000000
    6     -1.23007663241686     1.23007663241686    -0.00000000000000
    7     -0.01310644282488    -0.01310644282488    -0.00000000000000
    8      0.01310644282488     0.01310644282488    -0.00000000000000
 frms,max,avg= 5.0224753E-01 1.2300766E+00   0.000E+00  0.000E+00  0.000E+00 e/A
 length scales= 13.000000000000 13.000000000000 13.000000000000 bohr
              =  6.879303711670  6.879303711670  6.879303711670 angstroms
 Fermi (or HOMO) energy (hartree) =  -0.12999   Average Vxc (hartree)=  -0.25471
 Eigenvalues (hartree) for nkpt=   2  k points, SPIN UP:
 kpt#   1, nband= 32, wtk=  0.50000, kpt=  0.2500  0.2500  0.2500 (reduced coord)
  -2.03515   -2.03515   -2.03277   -2.03277   -1.00291   -1.00286   -1.00276   -1.00276
  -1.00257   -1.00257   -1.00036   -1.00034   -1.00034   -1.00031   -1.00031   -1.00030
  -0.55636   -0.54838   -0.54563   -0.53370   -0.22672   -0.21480   -0.20845   -0.20475
  -0.19545   -0.18215   -0.18000   -0.17704   -0.17126   -0.16733   -0.16634   -0.12999
 prteigrs : prtvol=0 or 1, do not print more k-points.

 Eigenvalues (hartree) for nkpt=   2  k points, SPIN DOWN:
 kpt#   1, nband= 32, wtk=  0.50000, kpt=  0.2500  0.2500  0.2500 (reduced coord)
  -2.03515   -2.03515   -2.03277   -2.03277   -1.00292   -1.00286   -1.00277   -1.00276
  -1.00257   -1.00257   -1.00036   -1.00034   -1.00033   -1.00031   -1.00031   -1.00030
  -0.55683   -0.54842   -0.54567   -0.53420   -0.22744   -0.21497   -0.20849   -0.20496
  -0.19548   -0.18224   -0.18009   -0.17723   -0.17134   -0.16753   -0.16646   -0.13105
 prteigrs : prtvol=0 or 1, do not print more k-points.


--- !EnergyTerms
iteration_state     : {dtset: 1, timimage: 1, image: 1, }
comment             : Components of total free energy in Hartree
kinetic             :  4.98889394788907E+01
hartree             :  8.51766085724168E+01
xc                  : -2.77853701075025E+01
Ewald energy        : -1.12290312699648E+02
psp_core            :  1.17964436789057E+01
local_psp           : -1.82957938186698E+02
spherical_terms     : -6.32402671521994E+01
total_energy        : -2.39411896415835E+02
total_energy_eV     : -6.51472901402185E+03
...


--- !EnergyTermsDC
iteration_state     : {dtset: 1, timimage: 1, image: 1, }
comment             : '"Double-counting" decomposition of free energy'
band_energy         : -4.91270007624744E+01
Ewald energy        : -1.12290312699648E+02
psp_core            :  1.17964436789057E+01
xc_dc               : -8.38886365314400E+01
spherical_terms     : -5.90239166420393E+00
total_energy_dc     : -2.39411897978861E+02
total_energy_dc_eV  : -6.51472905655395E+03
...


 Cartesian components of stress tensor (hartree/bohr^3)
  sigma(1 1)=  3.77144521E-05  sigma(3 2)=  0.00000000E+00
  sigma(2 2)=  3.77144521E-05  sigma(3 1)=  0.00000000E+00
  sigma(3 3)=  8.71947710E-05  sigma(2 1)=  2.38220611E-05

-Cartesian components of stress tensor (GPa)         [Pressure= -1.5949E+00 GPa]
- sigma(1 1)=  1.10959730E+00  sigma(3 2)=  0.00000000E+00
- sigma(2 2)=  1.10959730E+00  sigma(3 1)=  0.00000000E+00
- sigma(3 3)=  2.56535830E+00  sigma(2 1)=  7.00869117E-01

------------------------------------------------------------
 LINEAR COMBINATION OF CONSTRAINED DFT ENERGIES:
 Moving images of the cell...

--- !ResultsGS
iteration_state: {dtset: 1, timimage: 1, image: 1, }
comment   : Linear combination of ground state results
convergence: {deltae: null, res2: null, residm: null, diffor: null, }
etotal    :  -2.39286505E+02
entropy   :   0.00000000E+00
fermie    :  -1.47875043E-01
cartesian_stress_tensor: # hartree/bohr^3
- [  7.31539332E-05,  -1.70802507E-05,   0.00000000E+00, ]
- [ -1.70802507E-05,   7.31539332E-05,   0.00000000E+00, ]
- [  0.00000000E+00,   0.00000000E+00,   9.83253686E-05, ]
pressure_GPa:  -2.3991E+00
cartesian_forces: # hartree/bohr
- [  8.27954664E-04,   8.27954664E-04,   0.00000000E+00, ]
- [ -7.53358954E-06,   7.53358954E-06,   2.17482883E-27, ]
- [  7.53358954E-06,  -7.53358954E-06,  -2.17482883E-27, ]
- [ -8.27954664E-04,  -8.27954664E-04,   0.00000000E+00, ]
- [  2.43247116E-03,  -2.43247116E-03,   9.69352280E-27, ]
- [ -2.43247116E-03,   2.43247116E-03,  -9.69352280E-27, ]
- [ -5.19995985E-04,  -5.19995985E-04,  -5.21958920E-27, ]
- [  5.19995985E-04,   5.19995985E-04,   5.21958920E-27, ]
force_length_stats: {min:   1.06541045E-05, max:   3.44003370E-03, mean:   1.33924447E-03, }
...



================================================================================
 LINEAR COMBINATION OF CONSTRAINED DFT ENERGIES - TIME STEP     2
================================================================================

--------------------------------------------------------------------------------
 LINEAR COMBINATION OF CONSTRAINED DFT ENERGIES - CELL #    1/   3
--------------------------------------------------------------------------------

 Real(R)+Recip(G) space primitive vectors, cartesian coordinates (Bohr,Bohr^-1):
 R(1)= 13.0000000  0.0000000  0.0000000  G(1)=  0.0769231  0.0000000  0.0000000
 R(2)=  0.0000000 13.0000000  0.0000000  G(2)=  0.0000000  0.0769231  0.0000000
 R(3)=  0.0000000  0.0000000 13.0000000  G(3)=  0.0000000  0.0000000  0.0769231
 Unit cell volume ucvol=  2.1970000E+03 bohr^3
 Angles (23,13,12)=  9.00000000E+01  9.00000000E+01  9.00000000E+01 degrees

 Coarse grid specifications (used for wave-functions):

 getcut: wavevector=  0.0000  0.0000  0.0000  ngfft=  50  50  50
         ecut(hartree)=     17.000   => boxcut(ratio)=   2.07223

 Fine grid specifications (used for densities):

 getcut: wavevector=  0.0000  0.0000  0.0000  ngfft=  80  80  80
         ecut(hartree)=     40.000   => boxcut(ratio)=   2.16148
--------------------------------------------------------------------------------

P newkpt: treating     32 bands with npw=    3667 for ikpt=   1 by node    0
P newkpt: treating     32 bands with npw=    3667 for ikpt=   2 by node    1
P newkpt: treating     32 bands with npw=    3667 for ikpt=   1 by node    3
P newkpt: treating     32 bands with npw=    3667 for ikpt=   2 by node    2
_setup2: Arith. and geom. avg. npw (full set) are    3667.000    3667.000

================================================================================

--- !BeginCycle
iteration_state: {dtset: 1, timimage: 2, image: 1, }
solver: {iscf: 17, nstep: 20, nline: 4, wfoptalg: 114, }
tolerances: {toldff: 1.00E-06, }
...

     iter   Etot(hartree)      deltaE(h)  residm     nres2    diffor    maxfor
 ETOT  1  -239.40042283323    -2.394E+02 3.606E-03 8.559E-03 2.338E-02 2.338E-02
 ETOT  2  -239.41880443178    -1.838E-02 2.432E-08 7.326E-03 3.984E-03 2.488E-02
 ETOT  3  -239.41876935487     3.508E-05 1.660E-06 1.642E-03 1.712E-04 2.488E-02
 ETOT  4  -239.41876731229     2.043E-06 1.232E-08 7.943E-04 1.296E-04 2.490E-02
 ETOT  5  -239.41876621951     1.093E-06 1.100E-09 4.971E-04 5.828E-05 2.489E-02
 ETOT  6  -239.41876549898     7.205E-07 7.511E-09 3.222E-04 4.268E-05 2.489E-02
 ETOT  7  -239.41876496357     5.354E-07 1.435E-09 1.849E-04 3.771E-05 2.488E-02
 ETOT  8  -239.41876462123     3.423E-07 7.294E-09 1.016E-04 3.114E-05 2.488E-02
 ETOT  9  -239.41876425008     3.712E-07 9.457E-09 1.000E-05 5.608E-05 2.487E-02
 ETOT 10  -239.41876423588     1.420E-08 7.314E-10 2.562E-08 2.786E-05 2.487E-02
 ETOT 11  -239.41876423899    -3.110E-09 1.292E-12 7.286E-09 4.211E-06 2.487E-02
 ETOT 12  -239.41876423898     4.206E-12 3.031E-13 1.704E-09 1.016E-06 2.487E-02
 ETOT 13  -239.41876423900    -1.907E-11 4.339E-14 4.796E-10 2.028E-07 2.487E-02
 ETOT 14  -239.41876423900    -3.979E-13 5.759E-13 1.853E-10 1.074E-07 2.487E-02

 At SCF step   14, forces are converged :
  for the second time, max diff in force=  1.074E-07 < toldff=  1.000E-06

 Cartesian components of stress tensor (hartree/bohr^3)
  sigma(1 1)=  3.61355365E-05  sigma(3 2)=  0.00000000E+00
  sigma(2 2)=  3.61355365E-05  sigma(3 1)=  0.00000000E+00
  sigma(3 3)=  8.65775339E-05  sigma(2 1)=  2.57087104E-05


--- !ResultsGS
iteration_state: {dtset: 1, timimage: 2, image: 1, }
comment   : Summary of ground state results
lattice_vectors:
- [ 13.0000000,   0.0000000,   0.0000000, ]
- [  0.0000000,  13.0000000,   0.0000000, ]
- [  0.0000000,   0.0000000,  13.0000000, ]
lattice_lengths: [  13.00000,   13.00000,   13.00000, ]
lattice_angles: [ 90.000,  90.000,  90.000, ] # degrees, (23, 13, 12)
lattice_volume:   2.1970000E+03
convergence: {deltae: -3.979E-13, res2:  1.853E-10, residm:  5.759E-13, diffor:  1.074E-07, }
etotal    :  -2.39418764E+02
entropy   :   0.00000000E+00
fermie    :  -1.29274578E-01
cartesian_stress_tensor: # hartree/bohr^3
- [  3.61355365E-05,   2.57087104E-05,   0.00000000E+00, ]
- [  2.57087104E-05,   3.61355365E-05,   0.00000000E+00, ]
- [  0.00000000E+00,   0.00000000E+00,   8.65775339E-05, ]
pressure_GPa:  -1.5578E+00
xred      :
- [ -3.0800E-02,  -3.0800E-02,  -6.5435E-31, Na]
- [  1.9850E-02,   4.8015E-01,   5.0000E-01, Na]
- [  4.8015E-01,   1.9850E-02,   5.0000E-01, Na]
- [  5.3080E-01,   5.3080E-01,  -6.5435E-31, Na]
- [  4.2019E-01,   7.9813E-02,   7.4500E-28,  I]
- [  7.9813E-02,   4.2019E-01,  -7.4631E-28,  I]
- [ -2.1354E-02,  -2.1354E-02,   5.0000E-01,  I]
- [  5.2135E-01,   5.2135E-01,   5.0000E-01,  I]
cartesian_forces: # hartree/bohr
- [  2.66344731E-04,   2.66344731E-04,  -0.00000000E+00, ]
- [  2.08313630E-05,  -2.08313630E-05,  -0.00000000E+00, ]
- [ -2.08313630E-05,   2.08313630E-05,  -0.00000000E+00, ]
- [ -2.66344731E-04,  -2.66344731E-04,  -0.00000000E+00, ]
- [  2.48689539E-02,  -2.48689539E-02,  -1.94181146E-30, ]
[...]
 Eigenvalues (hartree) for nkpt=   2  k points, SPIN UP:
 kpt#   1, nband= 32, wtk=  0.50000, kpt=  0.2500  0.2500  0.2500 (reduced coord)
  -2.03491   -2.03490   -2.03277   -2.03276   -1.00263   -1.00260   -1.00252   -1.00252
  -1.00234   -1.00233   -1.00035   -1.00033   -1.00033   -1.00030   -1.00030   -1.00029
  -0.55433   -0.54828   -0.54549   -0.53618   -0.22385   -0.21384   -0.20878   -0.20297
  -0.19548   -0.18182   -0.17958   -0.17862   -0.17200   -0.16919   -0.16607   -0.13695
 prteigrs : prtvol=0 or 1, do not print more k-points.

 Eigenvalues (hartree) for nkpt=   2  k points, SPIN DOWN:
 kpt#   1, nband= 32, wtk=  0.50000, kpt=  0.2500  0.2500  0.2500 (reduced coord)
  -2.03491   -2.03490   -2.03277   -2.03276   -1.00263   -1.00260   -1.00253   -1.00252
  -1.00234   -1.00233   -1.00035   -1.00033   -1.00033   -1.00030   -1.00030   -1.00029
  -0.55479   -0.54834   -0.54554   -0.53669   -0.22456   -0.21401   -0.20882   -0.20318
  -0.19552   -0.18193   -0.17967   -0.17883   -0.17208   -0.16938   -0.16618   -0.13799
 prteigrs : prtvol=0 or 1, do not print more k-points.


--- !EnergyTerms
iteration_state     : {dtset: 1, timimage: 6, image: 1, }
comment             : Components of total free energy in Hartree
kinetic             :  4.98755843705040E+01
hartree             :  8.50655135217065E+01
xc                  : -2.77794469061624E+01
Ewald energy        : -1.12401660137944E+02
psp_core            :  1.17964436789057E+01
local_psp           : -1.82738288973027E+02
spherical_terms     : -6.32367691527221E+01
total_energy        : -2.39418623598740E+02
total_energy_eV     : -6.51491206997816E+03
...


--- !EnergyTermsDC
iteration_state     : {dtset: 1, timimage: 6, image: 1, }
comment             : '"Double-counting" decomposition of free energy'
band_energy         : -4.91319887462609E+01
Ewald energy        : -1.12401660137944E+02
psp_core            :  1.17964436789057E+01
xc_dc               : -8.37793109005045E+01
spherical_terms     : -5.90210859971990E+00
total_energy_dc     : -2.39418624705524E+02
total_energy_dc_eV  : -6.51491210009528E+03
...


 Cartesian components of stress tensor (hartree/bohr^3)
  sigma(1 1)=  4.66157253E-05  sigma(3 2)=  0.00000000E+00
  sigma(2 2)=  4.66157253E-05  sigma(3 1)=  0.00000000E+00
  sigma(3 3)=  8.65745632E-05  sigma(2 1)=  1.69278779E-05

-Cartesian components of stress tensor (GPa)         [Pressure= -1.7634E+00 GPa]
- sigma(1 1)=  1.37148176E+00  sigma(3 2)=  0.00000000E+00
- sigma(2 2)=  1.37148176E+00  sigma(3 1)=  0.00000000E+00
- sigma(3 3)=  2.54711116E+00  sigma(2 1)=  4.98035278E-01

--- !ResultsGS
iteration_state: {dtset: 1, timimage: 6, image: 1, }
comment   : Linear combination of ground state results
convergence: {deltae: null, res2: null, residm: null, diffor: null, }
etotal    :  -2.39286910E+02
entropy   :   0.00000000E+00
fermie    :  -1.55172650E-01
cartesian_stress_tensor: # hartree/bohr^3
- [  7.87687235E-05,  -2.11103815E-05,   0.00000000E+00, ]
- [ -2.11103815E-05,   7.87687235E-05,   0.00000000E+00, ]
- [  0.00000000E+00,   0.00000000E+00,   9.78872507E-05, ]
pressure_GPa:  -2.5050E+00
cartesian_forces: # hartree/bohr
- [  3.80632302E-04,   3.80632302E-04,   2.03890203E-29, ]
- [ -8.80671729E-05,   8.80671729E-05,  -6.36914159E-28, ]
- [  8.80671729E-05,  -8.80671729E-05,   6.36914159E-28, ]
- [ -3.80632302E-04,  -3.80632302E-04,  -2.03890203E-29, ]
- [ -2.35263971E-04,   2.35263971E-04,   1.83920423E-45, ]
- [  2.35263971E-04,  -2.35263971E-04,   1.83920423E-45, ]
- [ -7.72768980E-05,  -7.72768980E-05,   1.83920423E-45, ]
- [  7.72768980E-05,   7.72768980E-05,   1.83920423E-45, ]
force_length_stats: {min:   1.09286037E-04, max:   5.38295363E-04, mean:   2.76210172E-04, }
...


== END DATASET(S) ==============================================================
================================================================================

 -outvars: echo values of variables after computation  --------
            acell      1.3000000000E+01  1.3000000000E+01  1.3000000000E+01 Bohr
              amu      2.29897680E+01  1.26904470E+02
       cellcharge      0.0000000000E+00
  cellcharge_2img      2.5000000000E-02
  cellcharge_3img      5.0000000000E-02
     densfor_pred           6
           diemac      2.00000000E+00
             ecut      1.70000000E+01 Hartree
           etotal     -2.3942557976E+02
      etotal_2img     -2.3942210762E+02
      etotal_3img     -2.3941862471E+02
            fcart      8.0659814970E-07  8.0659814970E-07  9.7090572950E-31
                      -4.2268636598E-05  4.2268636598E-05 -1.5534491672E-29
                       4.2268636598E-05 -4.2268636598E-05  1.5534491672E-29
                      -8.0659814970E-07 -8.0659814970E-07 -9.7090572950E-31
                       1.9839107316E-02 -1.9839107316E-02  8.7581154020E-47
                      -1.9839107316E-02  1.9839107316E-02  8.7581154020E-47
                       1.6397884576E-04  1.6397884576E-04  8.7581154020E-47
                      -1.6397884576E-04 -1.6397884576E-04  8.7581154020E-47
       fcart_2img      1.0037038949E-05  1.0037038949E-05  9.7090572950E-31
                      -4.3462765911E-05  4.3462765911E-05 -1.5534491672E-29
                       4.3462765911E-05 -4.3462765911E-05  1.5534491672E-29
                      -1.0037038949E-05 -1.0037038949E-05 -9.7090572950E-31
                       1.9337383456E-02 -1.9337383456E-02  8.7581154020E-47
                      -1.9337383456E-02  1.9337383456E-02  8.7581154020E-47
                       1.5802994241E-04  1.5802994241E-04  8.7581154020E-47
                      -1.5802994241E-04 -1.5802994241E-04  8.7581154020E-47
       fcart_3img      1.8737076165E-05  1.8737076165E-05 -0.0000000000E+00
                      -4.4755227032E-05  4.4755227032E-05  1.5534491672E-29
                       4.4755227032E-05 -4.4755227032E-05 -1.5534491672E-29
                      -1.8737076165E-05 -1.8737076165E-05 -0.0000000000E+00
                       1.8835930442E-02 -1.8835930442E-02 -0.0000000000E+00
                      -1.8835930442E-02  1.8835930442E-02 -0.0000000000E+00
                       1.5224601955E-04  1.5224601955E-04 -0.0000000000E+00
                      -1.5224601955E-04 -1.5224601955E-04 -0.0000000000E+00
-          fftalg         312
           imgmov           6
           ionmov           2
              ixc     -101130
              kpt      2.50000000E-01  2.50000000E-01  2.50000000E-01
                      -2.50000000E-01  2.50000000E-01  2.50000000E-01
         kptrlatt        2    0    0      0    2    0      0    0    2
          kptrlen      2.60000000E+01
        mixesimgf     -5.90000000E+01  8.00000000E+01 -2.00000000E+01
P           mkmem           1
            natom           8
            nband          32
        ndynimage           3
            ngfft          50      50      50
          ngfftdg          80      80      80
           nimage           3
             nkpt           2
    nblock_lobpcg          16
-          npband           2
-         npimage           3
-        np_spkpt           4
           nspden           2
           nsppol           2
            nstep          20
             nsym           8
        ntimimage           6
           ntypat           2
              occ      1.000000  1.000000  1.000000  1.000000  1.000000  1.000000
                       1.000000  1.000000  1.000000  1.000000  1.000000  1.000000
                       1.000000  1.000000  1.000000  1.000000  1.000000  1.000000
                       1.000000  1.000000  1.000000  1.000000  1.000000  1.000000
                       1.000000  1.000000  1.000000  1.000000  1.000000  1.000000
                       1.000000  1.000000
                       1.000000  1.000000  1.000000  1.000000  1.000000  1.000000
                       1.000000  1.000000  1.000000  1.000000  1.000000  1.000000
                       1.000000  1.000000  1.000000  1.000000  1.000000  1.000000
                       1.000000  1.000000  1.000000  1.000000  1.000000  1.000000
                       1.000000  1.000000  1.000000  1.000000  1.000000  1.000000
                       1.000000  1.000000
         occ_2img      1.000000  1.000000  1.000000  1.000000  1.000000  1.000000
                       1.000000  1.000000  1.000000  1.000000  1.000000  1.000000
                       1.000000  1.000000  1.000000  1.000000  1.000000  1.000000
                       1.000000  1.000000  1.000000  1.000000  1.000000  1.000000
                       1.000000  1.000000  1.000000  1.000000  1.000000  1.000000
                       1.000000  0.975000
                       1.000000  1.000000  1.000000  1.000000  1.000000  1.000000
                       1.000000  1.000000  1.000000  1.000000  1.000000  1.000000
                       1.000000  1.000000  1.000000  1.000000  1.000000  1.000000
                       1.000000  1.000000  1.000000  1.000000  1.000000  1.000000
                       1.000000  1.000000  1.000000  1.000000  1.000000  1.000000
                       1.000000  1.000000
         occ_3img      1.000000  1.000000  1.000000  1.000000  1.000000  1.000000
                       1.000000  1.000000  1.000000  1.000000  1.000000  1.000000
                       1.000000  1.000000  1.000000  1.000000  1.000000  1.000000
                       1.000000  1.000000  1.000000  1.000000  1.000000  1.000000
                       1.000000  1.000000  1.000000  1.000000  1.000000  1.000000
                       1.000000  0.950000
                       1.000000  1.000000  1.000000  1.000000  1.000000  1.000000
                       1.000000  1.000000  1.000000  1.000000  1.000000  1.000000
                       1.000000  1.000000  1.000000  1.000000  1.000000  1.000000
                       1.000000  1.000000  1.000000  1.000000  1.000000  1.000000
                       1.000000  1.000000  1.000000  1.000000  1.000000  1.000000
                       1.000000  1.000000
           occopt           0
        optforces           1
        paral_kgb           1
        pawecutdg      4.00000000E+01 Hartree
           prtden           0
        prtebands           0
           prteig           0
           prtgsr           0
           prtvol           1
            prtwf           0
           shiftk      5.00000000E-01  5.00000000E-01  5.00000000E-01
          spgroup          65
           strten      4.4918222887E-05  4.4918222887E-05  8.5953555148E-05
                       0.0000000000E+00  0.0000000000E+00  1.8927552455E-05
      strten_2img      4.5765729739E-05  4.5765729739E-05  8.6257978364E-05
                       0.0000000000E+00  0.0000000000E+00  1.7927159634E-05
      strten_3img      4.6615725265E-05  4.6615725265E-05  8.6574563235E-05
                       0.0000000000E+00  0.0000000000E+00  1.6927877867E-05
           symrel      1  0  0   0  1  0   0  0  1      -1  0  0   0 -1  0   0  0 -1
                      -1  0  0   0 -1  0   0  0  1       1  0  0   0  1  0   0  0 -1
                       0  1  0   1  0  0   0  0  1       0 -1  0  -1  0  0   0  0 -1
                       0 -1  0  -1  0  0   0  0  1       0  1  0   1  0  0   0  0 -1
            tnons      0.0000000  0.0000000  0.0000000     0.5000000  0.5000000 -0.0000000
                       0.5000000  0.5000000  0.0000000     0.0000000  0.0000000 -0.0000000
                       0.0000000  0.0000000  0.0000000     0.5000000  0.5000000 -0.0000000
                       0.5000000  0.5000000  0.0000000     0.0000000  0.0000000 -0.0000000
           toldff      1.00000000E-06
           tolimg      5.00000000E-06 Hartree
           tolmxf      1.00000000E-05
     tolwfr_diago      1.00000000E-30
            typat      1  1  1  1  2  2  2  2
           useylm           1
         wfoptalg         114
              wtk        0.50000    0.50000
           xangst     -1.9651420361E-01 -1.9651420361E-01 -5.0203222742E-27
                       1.3616782465E-01  3.3034840312E+00  3.4396518558E+00
                       3.3034840312E+00  1.3616782465E-01  3.4396518558E+00
                       3.6361660595E+00  3.6361660595E+00  5.0155102581E-27
                       2.9310098567E+00  5.0864199912E-01  8.9308564556E-27
                       5.0864199912E-01  2.9310098567E+00 -8.9412564334E-27
                      -1.5625515395E-01 -1.5625515395E-01  3.4396518558E+00
                       3.5959070098E+00  3.5959070098E+00  3.4396518558E+00
            xcart     -3.7135802605E-01 -3.7135802605E-01 -9.4870341970E-27
                       2.5731989670E-01  6.2426801033E+00  6.5000000000E+00
                       6.2426801033E+00  2.5731989670E-01  6.5000000000E+00
                       6.8713580261E+00  6.8713580261E+00  9.4779408044E-27
                       5.5388059220E+00  9.6119407802E-01  1.6876872833E-26
                       9.6119407802E-01  5.5388059220E+00 -1.6896525943E-26
                      -2.9527944782E-01 -2.9527944782E-01  6.5000000000E+00
                       6.7952794479E+00  6.7952794479E+00  6.5000000000E+00
             xred     -2.8566002004E-02 -2.8566002004E-02 -7.2977186131E-28
                       1.9793838207E-02  4.8020616180E-01  5.0000000000E-01
                       4.8020616180E-01  1.9793838207E-02  5.0000000000E-01
                       5.2856600201E-01  5.2856600201E-01  7.2907236957E-28
                       4.2606199400E-01  7.3938006002E-02  1.2982209872E-27
                       7.3938006002E-02  4.2606199400E-01 -1.2997327648E-27
                      -2.2713803679E-02 -2.2713803679E-02  5.0000000000E-01
                       5.2271380368E-01  5.2271380368E-01  5.0000000000E-01
            znucl       11.00000   53.00000

================================================================================


- Timing analysis has been suppressed with timopt=0



================================================================================

 Suggested references for the acknowledgment of ABINIT usage.

 The users of ABINIT have little formal obligations with respect to the ABINIT group
 (those specified in the GNU General Public License, http://www.gnu.org/copyleft/gpl.txt).
 However, it is common practice in the scientific literature,
 to acknowledge the efforts of people that have made the research possible.
 In this spirit, please find below suggested citations of work written by ABINIT developers,
 corresponding to implementations inside of ABINIT that you have used in the present run.
 Note also that it will be of great value to readers of publications presenting these results,
 to read papers enabling them to understand the theoretical formalism and details
 of the ABINIT implementation.
 For information on why they are suggested, see also https://docs.abinit.org/theory/acknowledgments.
-
- [1] Specification of an extensible and portable file format for electronic structure and crystallographic data
- X. Gonze, C.-O. Almbladh, A. Cucca, D. Caliste, C. Freysoldt, M. Marques, V. Olevano, Y. Pouillon, M.J. Verstraete,
- Comput. Material Science 43, 1056 (2008).
- Comment: to be cited in case the ETSF_IO file format is used, i.e. iomode=3.
- DOI and bibtex: see https://docs.abinit.org/theory/bibliography/#gonze2008
-
- [2] Implementation of the Projector Augmented-Wave Method in the ABINIT code.
- M. Torrent, F. Jollet, F. Bottin, G. Zerah, and X. Gonze Comput. Mat. Science 42, 337, (2008).
- Comment: PAW calculations. Strong suggestion to cite this paper.
- DOI and bibtex: see https://docs.abinit.org/theory/bibliography/#torrent2008
-
- [3] Libxc: A library of exchange and correlation functionals for density functional theory.
- M.A.L. Marques, M.J.T. Oliveira, T. Burnus, Computer Physics Communications 183, 2227 (2012).
- Comment: to be cited when LibXC is used (negative value of ixc)
- Strong suggestion to cite this paper.
- DOI and bibtex: see https://docs.abinit.org/theory/bibliography/#marques2012
-
- [4] Large scale ab initio calculations based on three levels of parallelization
- F. Bottin, S. Leroux, A. Knyazev, G. Zerah, Comput. Mat. Science 42, 329, (2008).
- Comment: in case LOBPCG algorithm is used (wfoptalg=4/14/114).
- Strong suggestion to cite this paper in your publications.
- This paper is also available at http://www.arxiv.org/abs/0707.3405
- DOI and bibtex: see https://docs.abinit.org/theory/bibliography/#bottin2008
-
- [5] The Abinit project: Impact, environment and recent developments.
- Computer Phys. Comm. 248, 107042 (2020).
- X.Gonze, B. Amadon, G. Antonius, F.Arnardi, L.Baguet, J.-M.Beuken,
- J.Bieder, F.Bottin, J.Bouchet, E.Bousquet, N.Brouwer, F.Bruneval,
- G.Brunin, T.Cavignac, J.-B. Charraud, Wei Chen, M.Cote, S.Cottenier,
- J.Denier, G.Geneste, Ph.Ghosez, M.Giantomassi, Y.Gillet, O.Gingras,
- D.R.Hamann, G.Hautier, Xu He, N.Helbig, N.Holzwarth, Y.Jia, F.Jollet,
- W.Lafargue-Dit-Hauret, K.Lejaeghere, M.A.L.Marques, A.Martin, C.Martins,
- H.P.C. Miranda, F.Naccarato, K. Persson, G.Petretto, V.Planes, Y.Pouillon,
- S.Prokhorenko, F.Ricci, G.-M.Rignanese, A.H.Romero, M.M.Schmitt, M.Torrent,
- M.J.van Setten, B.Van Troeye, M.J.Verstraete, G.Zerah and J.W.Zwanzig
- Comment: the fifth generic paper describing the ABINIT project.
- Note that a version of this paper, that is not formatted for Computer Phys. Comm.
- is available at https://www.abinit.org/sites/default/files/ABINIT20.pdf .
- The licence allows the authors to put it on the Web.
- DOI and bibtex: see https://docs.abinit.org/theory/bibliography/#gonze2020
-
- [6] ABINIT: Overview, and focus on selected capabilities
- J. Chem. Phys. 152, 124102 (2020).
- A. Romero, D.C. Allan, B. Amadon, G. Antonius, T. Applencourt, L.Baguet,
- J.Bieder, F.Bottin, J.Bouchet, E.Bousquet, F.Bruneval,
- G.Brunin, D.Caliste, M.Cote,
- J.Denier, C. Dreyer, Ph.Ghosez, M.Giantomassi, Y.Gillet, O.Gingras,
- D.R.Hamann, G.Hautier, F.Jollet, G. Jomard,
- A.Martin,
- H.P.C. Miranda, F.Naccarato, G.Petretto, N.A. Pike, V.Planes,
- S.Prokhorenko, T. Rangel, F.Ricci, G.-M.Rignanese, M.Royo, M.Stengel, M.Torrent,
- M.J.van Setten, B.Van Troeye, M.J.Verstraete, J.Wiktor, J.W.Zwanziger, and X.Gonze.
- Comment: a global overview of ABINIT, with focus on selected capabilities .
- Note that a version of this paper, that is not formatted for J. Chem. Phys
- is available at https://www.abinit.org/sites/default/files/ABINIT20_JPC.pdf .
- The licence allows the authors to put it on the Web.
- DOI and bibtex: see https://docs.abinit.org/theory/bibliography/#romero2020
-
- [7] Recent developments in the ABINIT software package.
- Computer Phys. Comm. 205, 106 (2016).
- X.Gonze, F.Jollet, F.Abreu Araujo, D.Adams, B.Amadon, T.Applencourt,
- C.Audouze, J.-M.Beuken, J.Bieder, A.Bokhanchuk, E.Bousquet, F.Bruneval
- D.Caliste, M.Cote, F.Dahm, F.Da Pieve, M.Delaveau, M.Di Gennaro,
- B.Dorado, C.Espejo, G.Geneste, L.Genovese, A.Gerossier, M.Giantomassi,
- Y.Gillet, D.R.Hamann, L.He, G.Jomard, J.Laflamme Janssen, S.Le Roux,
- A.Levitt, A.Lherbier, F.Liu, I.Lukacevic, A.Martin, C.Martins,
- M.J.T.Oliveira, S.Ponce, Y.Pouillon, T.Rangel, G.-M.Rignanese,
- A.H.Romero, B.Rousseau, O.Rubel, A.A.Shukri, M.Stankovski, M.Torrent,
- M.J.Van Setten, B.Van Troeye, M.J.Verstraete, D.Waroquier, J.Wiktor,
- B.Xu, A.Zhou, J.W.Zwanziger.
- Comment: the fourth generic paper describing the ABINIT project.
- Note that a version of this paper, that is not formatted for Computer Phys. Comm.
- is available at https://www.abinit.org/sites/default/files/ABINIT16.pdf .
- The licence allows the authors to put it on the Web.
- DOI and bibtex: see https://docs.abinit.org/theory/bibliography/#gonze2016
-
- Proc.   0 individual time (sec): cpu=        190.2  wall=        190.5

================================================================================

 Calculation completed.
.Delivered   0 WARNINGs and   0 COMMENTs to log file.
+Overall time at end (sec) : cpu=       4569.8  wall=       4570.2
