
.Version 9.3.3 of ABINIT 
.(MPI version, prepared for a x86_64_linux_gnu9.3 computer) 

.Copyright (C) 1998-2020 ABINIT group . 
 ABINIT comes with ABSOLUTELY NO WARRANTY.
 It is free software, and you are welcome to redistribute it
 under certain conditions (GNU General Public License,
 see ~abinit/COPYING or http://www.gnu.org/copyleft/gpl.txt).

 ABINIT is a project of the Universite Catholique de Louvain,
 Corning Inc. and other collaborators, see ~abinit/doc/developers/contributors.txt .
 Please read https://docs.abinit.org/theory/acknowledgments for suggested
 acknowledgments of the ABINIT effort.
 For more information, see https://www.abinit.org .

.Starting date : Thu 17 Dec 2020.
- ( at 13h41 )
  
- input  file    -> /home/buildbot/ABINIT/alps_gnu_9.3_openmpi/biederj_beauty/tests/TestBot_MPI1/tutoparal_tstring_02_MPI1/tstring_02.abi
- output file    -> tstring_02_MPI1.abo
- root for input  files -> tstring_02_MPI1i
- root for output files -> tstring_02_MPI1o


 Symmetries : space group P1 (#  1); Bravais aP (primitive triclinic)
================================================================================
 Values of the parameters that define the memory need of the present run
     intxc =       0    ionmov =       2      iscf =      17    lmnmax =       8
     lnmax =       4     mgfft =      80  mpssoang =       2    mqgrid =    5410
     natom =       8  nloc_mem =       2    nspden =       1   nspinor =       1
    nsppol =       1      nsym =       1    n1xccc =       1    ntypat =       3
    occopt =       1   xclevel =       1
-    mband =          10        mffmem =           1         mkmem =           1
       mpw =        3654          nfft =      128000          nkpt =           1
 PAW method is used; the additional fine FFT grid is defined by:
   mgfftf=       120    nfftf =    349920
================================================================================
P This job should need less than                      76.438 Mbytes of memory.
  Rough estimation (10% accuracy) of disk space for files :
_ WF disk file :      0.560 Mbytes ; DEN or POT disk file :      2.672 Mbytes.
================================================================================

--------------------------------------------------------------------------------
------------- Echo of variables that govern the present computation ------------
--------------------------------------------------------------------------------
-
- outvars: echo of selected default values                                      
-   iomode0 =  0 , fftalg0 =312 , wfoptalg0 = 10
-
- outvars: echo of global parameters not present in the input file              
-  max_nthreads =    0
-
 -outvars: echo values of preprocessed input variables --------
-          iomode           1
            acell      1.9000000000E+01  9.4500000000E+00  9.4500000000E+00 Bohr
              amu      1.59994000E+01  1.40067400E+01  1.00794000E+00
           bandpp          10
           charge      1.00000000E+00
     densfor_pred           6
             ecut      2.00000000E+01 Hartree
-          fftalg         312
           iatfix        1    4
           ionmov           2
           istwfk        2
              ixc           2
           kptopt           0
P           mkmem           1
           natfix           2
            natom           8
            nband          10
            ngfft          80      40      40
          ngfftdg         120      54      54
             nkpt           1
            nstep          50
             nsym           1
            ntime         500
           ntypat           3
              occ      2.000000  2.000000  2.000000  2.000000  2.000000  2.000000
                       2.000000  2.000000  0.000000  0.000000
        optforces           1
        paral_kgb           1
        pawecutdg      4.00000000E+01 Hartree
          spgroup           1
           toldff      5.00000000E-07
            typat      1  3  3  2  3  3  3  3
           useylm           1
         wfoptalg         114
           xangst      5.0271834816E+00  2.5003623106E+00  2.5003623106E+00
                       4.7168596478E+00  2.3059243775E+00  3.4060988259E+00
                       4.6956956540E+00  3.3992717737E+00  2.3088687246E+00
                       9.0271834816E+00  2.5003623106E+00  2.5003623106E+00
                       9.5142525511E+00  2.3467504080E+00  1.6033225175E+00
                       9.2395597332E+00  1.7142989637E+00  3.1332202550E+00
                       9.3809742276E+00  3.3710801580E+00  2.9253313681E+00
                       7.9840408307E+00  2.5600047932E+00  2.3646901807E+00
            xcart      9.5000000000E+00  4.7250000000E+00  4.7250000000E+00
                       8.9135729416E+00  4.3575655566E+00  6.4365939625E+00
                       8.8735787893E+00  6.4236927035E+00  4.3631295663E+00
                       1.7058904532E+01  4.7250000000E+00  4.7250000000E+00
                       1.7979331681E+01  4.4347155734E+00  3.0298404607E+00
                       1.7460237484E+01  3.2395555512E+00  5.9209281959E+00
                       1.7727472150E+01  6.3704182706E+00  5.5280751337E+00
                       1.5087650604E+01  4.8377079580E+00  4.4686168307E+00
             xred      5.0000000000E-01  5.0000000000E-01  5.0000000000E-01
                       4.6913541798E-01  4.6111804832E-01  6.8112105423E-01
                       4.6703046260E-01  6.7975584164E-01  4.6170683241E-01
                       8.9783708061E-01  5.0000000000E-01  5.0000000000E-01
                       9.4628061477E-01  4.6928207125E-01  3.2061803817E-01
                       9.1895986759E-01  3.4281011124E-01  6.2655324824E-01
                       9.3302484999E-01  6.7411833551E-01  5.8498149563E-01
                       7.9408687388E-01  5.1192676805E-01  4.7286950589E-01
            znucl        8.00000    7.00000    1.00000

================================================================================

 chkinp: Checking input parameters for consistency.

================================================================================
== DATASET  1 ==================================================================
-   mpi_nproc: 1, omp_nthreads: -1 (-1 if OMP is not activated)


--- !DatasetInfo
iteration_state: {dtset: 1, }
dimensions: {natom: 8, nkpt: 1, mband: 10, nsppol: 1, nspinor: 1, nspden: 1, mpw: 3654, }
cutoff_energies: {ecut:  20.0, pawecutdg:  40.0, }
electrons: {nelect:   1.60000000E+01, charge:   1.00000000E+00, occopt:   1.00000000E+00, tsmear:   1.00000000E-02, }
meta: {optdriver: 0, ionmov: 2, optcell: 0, iscf: 17, paral_kgb: 1, }
...

 Exchange-correlation functional for the present dataset will be:
  LDA: Perdew-Zunger-Ceperley-Alder - ixc=2
 Citation for XC functional:
  J.P.Perdew and A.Zunger, PRB 23, 5048 (1981)

 Real(R)+Recip(G) space primitive vectors, cartesian coordinates (Bohr,Bohr^-1):
 R(1)= 19.0000000  0.0000000  0.0000000  G(1)=  0.0526316  0.0000000  0.0000000
 R(2)=  0.0000000  9.4500000  0.0000000  G(2)=  0.0000000  0.1058201  0.0000000
 R(3)=  0.0000000  0.0000000  9.4500000  G(3)=  0.0000000  0.0000000  0.1058201
 Unit cell volume ucvol=  1.6967475E+03 bohr^3
 Angles (23,13,12)=  9.00000000E+01  9.00000000E+01  9.00000000E+01 degrees

 Coarse grid specifications (used for wave-functions):

 getcut: wavevector=  0.0000  0.0000  0.0000  ngfft=  80  40  40
         ecut(hartree)=     20.000   => boxcut(ratio)=   2.09149

 Fine grid specifications (used for densities):

 getcut: wavevector=  0.0000  0.0000  0.0000  ngfft= 120  54  54
         ecut(hartree)=     40.000   => boxcut(ratio)=   2.00709

--- Pseudopotential description ------------------------------------------------
- pspini: atom type   1  psp file is /home/buildbot/ABINIT/alps_gnu_9.3_openmpi/biederj_beauty/tests/Psps_for_tests/8o_hard.paw
- pspatm: opening atomic psp file    /home/buildbot/ABINIT/alps_gnu_9.3_openmpi/biederj_beauty/tests/Psps_for_tests/8o_hard.paw
- oxygen - PAW data extracted from US-psp (D.Vanderbilt) - generated by USpp2Abinit v2.3.0
-  8.00000   6.00000  20090106                znucl, zion, pspdat
    7    2    1    0       489   0.00000      pspcod,pspxc,lmax,lloc,mmax,r2well
 Pseudopotential format is: paw4
 basis_size (lnmax)=  4 (lmn_size=  8), orbitals=   0   0   1   1
 Spheres core radius: rc_sph= 1.11262345
 5 radial meshes are used:
  - mesh 1: r(i)=AA*[exp(BB*(i-1))-1], size= 489 , AA= 0.30984E-03 BB= 0.16949E-01
  - mesh 2: r(i)=AA*[exp(BB*(i-1))-1], size= 548 , AA= 0.30984E-03 BB= 0.16949E-01
  - mesh 3: r(i)=AA*[exp(BB*(i-1))-1], size= 506 , AA= 0.30984E-03 BB= 0.16949E-01
  - mesh 4: r(i)=AA*[exp(BB*(i-1))-1], size= 613 , AA= 0.30984E-03 BB= 0.16949E-01
  - mesh 5: r(i)=AA*[exp(BB*(i-1))-1], size= 608 , AA= 0.30984E-03 BB= 0.16949E-01
 Shapefunction is BESSEL type: shapef(r,l)=aa(1,l)*jl(q(1,l)*r)+aa(2,l)*jl(q(2,l)*r)
 Radius for shape functions = sphere core radius
 Radial grid used for partial waves is grid 1
 Radial grid used for projectors is grid  2
 Radial grid used for (t)core density is grid 3
 Radial grid used for Vloc is grid 4
 Radial grid used for pseudo valence density is grid 5
 Compensation charge density is taken into account in XC energy/potential
 pspatm: atomic psp has been read  and splines computed

- pspini: atom type   2  psp file is /home/buildbot/ABINIT/alps_gnu_9.3_openmpi/biederj_beauty/tests/Psps_for_tests/7n.paw
- pspatm: opening atomic psp file    /home/buildbot/ABINIT/alps_gnu_9.3_openmpi/biederj_beauty/tests/Psps_for_tests/7n.paw
- nitrogen - PAW data extracted from US-psp (D.Vanderbilt) - generated by USpp2Abinit v2.3.0
-  7.00000   5.00000  20090106                znucl, zion, pspdat
    7    2    1    0       481   0.00000      pspcod,pspxc,lmax,lloc,mmax,r2well
 Pseudopotential format is: paw4
 basis_size (lnmax)=  4 (lmn_size=  8), orbitals=   0   0   1   1
 Spheres core radius: rc_sph= 1.11028687
 4 radial meshes are used:
  - mesh 1: r(i)=AA*[exp(BB*(i-1))-1], size= 481 , AA= 0.35411E-03 BB= 0.16949E-01
  - mesh 2: r(i)=AA*[exp(BB*(i-1))-1], size= 540 , AA= 0.35411E-03 BB= 0.16949E-01
  - mesh 3: r(i)=AA*[exp(BB*(i-1))-1], size= 507 , AA= 0.35411E-03 BB= 0.16949E-01
  - mesh 4: r(i)=AA*[exp(BB*(i-1))-1], size= 605 , AA= 0.35411E-03 BB= 0.16949E-01
 Shapefunction is BESSEL type: shapef(r,l)=aa(1,l)*jl(q(1,l)*r)+aa(2,l)*jl(q(2,l)*r)
 Radius for shape functions = sphere core radius
 Radial grid used for partial waves is grid 1
 Radial grid used for projectors is grid  2
 Radial grid used for (t)core density is grid 3
 Radial grid used for Vloc is grid 4
 Radial grid used for pseudo valence density is grid 4
 Compensation charge density is taken into account in XC energy/potential
 pspatm: atomic psp has been read  and splines computed

- pspini: atom type   3  psp file is /home/buildbot/ABINIT/alps_gnu_9.3_openmpi/biederj_beauty/tests/Psps_for_tests/1h.paw
- pspatm: opening atomic psp file    /home/buildbot/ABINIT/alps_gnu_9.3_openmpi/biederj_beauty/tests/Psps_for_tests/1h.paw
- hydrogen - PAW data extracted from US-psp (D.Vanderbilt) - generated by USpp2Abinit v2.3.0
-  1.00000   1.00000  20090106                znucl, zion, pspdat
    7    2    0    0       347   0.00000      pspcod,pspxc,lmax,lloc,mmax,r2well
 Pseudopotential format is: paw4
 basis_size (lnmax)=  1 (lmn_size=  1), orbitals=   0
 Spheres core radius: rc_sph= 0.79976805
 4 radial meshes are used:
  - mesh 1: r(i)=AA*[exp(BB*(i-1))-1], size= 347 , AA= 0.24788E-02 BB= 0.16949E-01
  - mesh 2: r(i)=AA*[exp(BB*(i-1))-1], size= 344 , AA= 0.24788E-02 BB= 0.16949E-01
  - mesh 3: r(i)=AA*[exp(BB*(i-1))-1], size= 490 , AA= 0.24788E-02 BB= 0.16949E-01
  - mesh 4: r(i)=AA*[exp(BB*(i-1))-1], size= 492 , AA= 0.24788E-02 BB= 0.16949E-01
 Shapefunction is BESSEL type: shapef(r,l)=aa(1,l)*jl(q(1,l)*r)+aa(2,l)*jl(q(2,l)*r)
 Radius for shape functions = sphere core radius
 Radial grid used for partial waves is grid 1
 Radial grid used for projectors is grid  2
 Radial grid used for (t)core density is grid 1
 Radial grid used for Vloc is grid 3
 Radial grid used for pseudo valence density is grid 4
 Compensation charge density is taken into account in XC energy/potential
 pspatm: atomic psp has been read  and splines computed

   1.09721832E+02                                ecore*ucvol(ha*bohr**3)
--------------------------------------------------------------------------------

_setup2: Arith. and geom. avg. npw (full set) are    7307.000    7307.000

================================================================================

=== [ionmov= 2] Broyden-Fletcher-Goldfard-Shanno method (forces)            
================================================================================

--- Iteration: (  1/500) Internal Cycle: (1/1)
--------------------------------------------------------------------------------

---SELF-CONSISTENT-FIELD CONVERGENCE--------------------------------------------

--- !BeginCycle
iteration_state: {dtset: 1, itime: 1, icycle: 1, }
solver: {iscf: 17, nstep: 50, nline: 4, wfoptalg: 114, }
tolerances: {toldff: 5.00E-07, }
...

     iter   Etot(hartree)      deltaE(h)  residm     nres2    diffor    maxfor
 ETOT  1  -29.630005088270    -2.963E+01 5.734E-04 4.069E+01 4.671E-02 4.671E-02
 ETOT  2  -29.522321056965     1.077E-01 2.278E-07 1.304E+01 6.073E-02 1.622E-02
 ETOT  3  -29.503860617043     1.846E-02 3.066E-07 1.136E+00 2.267E-02 9.466E-03
 ETOT  4  -29.495876403163     7.984E-03 7.456E-06 2.192E-01 5.946E-03 8.266E-03
 ETOT  5  -29.494075468599     1.801E-03 4.206E-06 9.079E-02 1.407E-03 6.860E-03
 ETOT  6  -29.490794341502     3.281E-03 1.083E-05 4.183E-02 1.168E-03 5.692E-03
 ETOT  7  -29.489077583626     1.717E-03 5.927E-06 2.873E-02 1.031E-03 4.716E-03
 ETOT  8  -29.487701371641     1.376E-03 2.703E-06 1.669E-02 8.961E-04 3.820E-03
 ETOT  9  -29.486682883723     1.018E-03 1.930E-06 5.594E-03 1.491E-03 2.329E-03
 ETOT 10  -29.486575393629     1.075E-04 2.970E-07 1.565E-03 1.015E-03 1.313E-03
 ETOT 11  -29.486811018330    -2.356E-04 7.840E-06 5.794E-05 1.077E-03 2.363E-04
 ETOT 12  -29.486813217503    -2.199E-06 9.966E-07 4.755E-05 1.188E-04 3.551E-04
 ETOT 13  -29.486844851592    -3.163E-05 1.268E-06 1.198E-05 9.553E-05 2.596E-04
 ETOT 14  -29.486856554482    -1.170E-05 1.465E-06 1.769E-06 8.876E-05 2.011E-04
 ETOT 15  -29.486859664361    -3.110E-06 1.040E-06 5.039E-07 2.635E-05 1.925E-04
 ETOT 16  -29.486860115159    -4.508E-07 2.840E-07 2.393E-07 7.132E-06 1.905E-04
 ETOT 17  -29.486860242237    -1.271E-07 3.276E-07 1.385E-07 2.994E-06 1.895E-04
 ETOT 18  -29.486860328999    -8.676E-08 1.068E-07 7.836E-08 2.454E-06 1.884E-04
 ETOT 19  -29.486860396296    -6.730E-08 9.296E-08 4.153E-08 1.650E-06 1.875E-04
 ETOT 20  -29.486860451001    -5.471E-08 2.762E-08 1.811E-08 1.490E-06 1.865E-04
 ETOT 21  -29.486860479611    -2.861E-08 3.001E-08 5.619E-09 8.701E-07 1.858E-04
 ETOT 22  -29.486860492973    -1.336E-08 6.346E-09 4.324E-10 1.075E-06 1.849E-04
 ETOT 23  -29.486860493605    -6.320E-10 1.075E-08 1.321E-10 3.340E-07 1.848E-04
 ETOT 24  -29.486860493747    -1.421E-10 1.732E-09 3.193E-11 2.208E-07 1.848E-04

 At SCF step   24, forces are converged : 
  for the second time, max diff in force=  2.208E-07 < toldff=  5.000E-07

 Cartesian components of stress tensor (hartree/bohr^3)
  sigma(1 1)=  9.94327935E-05  sigma(3 2)= -2.76980550E-07
  sigma(2 2)=  3.62315650E-06  sigma(3 1)= -1.17951087E-06
  sigma(3 3)=  4.98807436E-06  sigma(2 1)=  3.76108391E-07


--- !ResultsGS
iteration_state: {dtset: 1, itime: 1, icycle: 1, }
comment   : Summary of ground state results
lattice_vectors:
- [ 19.0000000,   0.0000000,   0.0000000, ]
- [  0.0000000,   9.4500000,   0.0000000, ]
- [  0.0000000,   0.0000000,   9.4500000, ]
lattice_lengths: [  19.00000,    9.45000,    9.45000, ]
lattice_angles: [ 90.000,  90.000,  90.000, ] # degrees, (23, 13, 12)
lattice_volume:   1.6967475E+03
convergence: {deltae: -1.421E-10, res2:  3.193E-11, residm:  1.732E-09, diffor:  2.208E-07, }
etotal    :  -2.94868605E+01
entropy   :   0.00000000E+00
fermie    :  -1.70543509E-01
cartesian_stress_tensor: # hartree/bohr^3
- [  9.94327935E-05,   3.76108391E-07,  -1.17951087E-06, ]
- [  3.76108391E-07,   3.62315650E-06,  -2.76980550E-07, ]
- [ -1.17951087E-06,  -2.76980550E-07,   4.98807436E-06, ]
pressure_GPa:  -1.0596E+00
xred      :
- [  5.0000E-01,   5.0000E-01,   5.0000E-01,  O]
- [  4.6914E-01,   4.6112E-01,   6.8112E-01,  H]
- [  4.6703E-01,   6.7976E-01,   4.6171E-01,  H]
- [  8.9784E-01,   5.0000E-01,   5.0000E-01,  N]
- [  9.4628E-01,   4.6928E-01,   3.2062E-01,  H]
- [  9.1896E-01,   3.4281E-01,   6.2655E-01,  H]
- [  9.3302E-01,   6.7412E-01,   5.8498E-01,  H]
- [  7.9409E-01,   5.1193E-01,   4.7287E-01,  H]
cartesian_forces: # hartree/bohr
- [  7.91919312E-03,   1.11579613E-04,  -2.79434361E-04, ]
- [ -5.78737895E-06,   3.18797028E-05,  -9.18415110E-06, ]
- [ -2.80344147E-06,  -1.93611974E-05,   3.51528549E-05, ]
- [ -7.69565861E-03,  -7.10920353E-05,   1.57355520E-04, ]
- [ -1.25634696E-04,   5.84527344E-05,   1.66500887E-04, ]
- [ -1.84753943E-04,   3.03191880E-05,  -2.42812242E-05, ]
- [ -4.23121694E-05,  -8.39400545E-05,  -1.31475405E-04, ]
- [  1.37757118E-04,  -5.78379510E-05,   8.53658797E-05, ]
force_length_stats: {min:   3.36772600E-05, max:   7.92490715E-03, mean:   2.05443979E-03, }
...

 Integrated electronic density in atomic spheres:
 ------------------------------------------------
 Atom  Sphere_radius  Integrated_density
    1        1.11262          3.31796210
    2        0.79977          0.35400728
    3        0.79977          0.34602438
    4        1.11029          2.30594313
    5        0.79977          0.33611618
    6        0.79977          0.32921712
    7        0.79977          0.33665533
    8        0.79977          0.31503600

 PAW TEST:
 ==== Compensation charge inside spheres ============
 The following values must be close to each other ...
 Compensation charge over spherical meshes =      1.217831086605170
 Compensation charge over fine fft grid    =      1.217846383956087

 ==== Results concerning PAW augmentation regions ====

 Total pseudopotential strength Dij (hartree):
 Atom #  1
   1.08410   1.72583  -0.00315  -0.00318   0.00246  -0.00473  -0.00479   0.00369
   1.72583   2.74684  -0.00479  -0.00484   0.00373  -0.00721  -0.00730   0.00562
  -0.00315  -0.00479  -0.40992   0.00323   0.00205  -0.44877   0.00432   0.00274
  -0.00318  -0.00484   0.00323  -0.41002   0.00188   0.00432  -0.44890   0.00252
   0.00246   0.00373   0.00205   0.00188  -0.40498   0.00274   0.00252  -0.44215
  -0.00473  -0.00721  -0.44877   0.00432   0.00274  -0.44567   0.00577   0.00366
  -0.00479  -0.00730   0.00432  -0.44890   0.00252   0.00577  -0.44584   0.00337
   0.00369   0.00562   0.00274   0.00252  -0.44215   0.00366   0.00337  -0.43683
 Atom #  8
  -0.04816


 Augmentation waves occupancies Rhoij:
 Atom #  1
   2.29623  -0.18603   0.14449   0.14652  -0.13157  -0.09192  -0.09312   0.07910
  -0.18603   0.03156  -0.09134  -0.09246   0.07562   0.00859   0.00873  -0.00906
   0.14449  -0.09134   1.10953  -0.11384  -0.07627  -0.07267   0.08128   0.05018
   0.14652  -0.09246  -0.11384   1.11326  -0.06972   0.08128  -0.07514   0.04587
  -0.13157   0.07562  -0.07627  -0.06972   0.89143   0.05010   0.04578   0.06016
  -0.09192   0.00859  -0.07267   0.08128   0.05010   0.01596  -0.00371   0.00112
  -0.09312   0.00873   0.08128  -0.07514   0.04578  -0.00371   0.01594   0.00125
   0.07910  -0.00906   0.05018   0.04587   0.06016   0.00112   0.00125   0.01218
 Atom #  8
   1.58412



---OUTPUT-----------------------------------------------------------------------

 Cartesian coordinates (xcart) [bohr]
  9.50000000000000E+00  4.72500000000000E+00  4.72500000000000E+00
  8.91357294161086E+00  4.35756555661331E+00  6.43659396250609E+00
  8.87357878934701E+00  6.42369270345131E+00  4.36312956625979E+00
  1.70589045315426E+01  4.72500000000000E+00  4.72500000000000E+00
  1.79793316806072E+01  4.43471557335327E+00  3.02984046074293E+00
  1.74602374842793E+01  3.23955555123806E+00  5.92092819588101E+00
  1.77274721498000E+01  6.37041827058959E+00  5.52807513366510E+00
  1.50876506037788E+01  4.83770795804868E+00  4.46861683066319E+00
 Reduced coordinates (xred)
  5.00000000000000E-01  5.00000000000000E-01  5.00000000000000E-01
  4.69135417979519E-01  4.61118048318869E-01  6.81121054233449E-01
  4.67030462597211E-01  6.79755841635059E-01  4.61706832408443E-01
  8.97837080607505E-01  5.00000000000000E-01  5.00000000000000E-01
  9.46280614768800E-01  4.69282071254314E-01  3.20618038173855E-01
  9.18959867593647E-01  3.42810111242123E-01  6.26553248241377E-01
  9.33024849989474E-01  6.74118335512126E-01  5.84981495625936E-01
  7.94086873883095E-01  5.11926768047479E-01  4.72869505890285E-01
 Cartesian forces (fcart) [Ha/bohr]; max,rms= 1.84754E-04 8.85219E-05 (free atoms)
  7.91919312393739E-03  1.11579613023220E-04 -2.79434361176850E-04
 -5.78737894912740E-06  3.18797028135440E-05 -9.18415109720401E-06
 -2.80344146751789E-06 -1.93611974121730E-05  3.51528548581753E-05
 -7.69565861222400E-03 -7.10920352961303E-05  1.57355519861338E-04
 -1.25634696399231E-04  5.84527343667459E-05  1.66500886906761E-04
 -1.84753943425687E-04  3.03191880332278E-05 -2.42812242058151E-05
 -4.23121694497713E-05 -8.39400544937546E-05 -1.31475404872162E-04
  1.37757117977940E-04 -5.78379510346801E-05  8.53658797257569E-05
 Reduced forces (fred)
 -1.50464669354811E-01 -1.05442734306943E-03  2.64065471312124E-03
  1.09960200033421E-04 -3.01263191587991E-04  8.67902278685779E-05
  5.32653878828399E-05  1.82963315545035E-04 -3.32194478409756E-04
  1.46217513632256E-01  6.71819733548431E-04 -1.48700966268965E-03
  2.38705923158540E-03 -5.52378339765749E-04 -1.57343338126889E-03
  3.51032492508805E-03 -2.86516326914003E-04  2.29457568744953E-04
  8.03931219545655E-04  7.93233514965981E-04  1.24244257604193E-03
 -2.61738524158087E-03  5.46568637277727E-04 -8.06707563408403E-04
 Total energy (etotal) [Ha]= -2.94868604937468E+01

--- Iteration: (  2/500) Internal Cycle: (1/1)
--------------------------------------------------------------------------------

---SELF-CONSISTENT-FIELD CONVERGENCE--------------------------------------------

--- !BeginCycle
iteration_state: {dtset: 1, itime: 2, icycle: 1, }
solver: {iscf: 17, nstep: 50, nline: 4, wfoptalg: 114, }
tolerances: {toldff: 5.00E-07, }
...

     iter   Etot(hartree)      deltaE(h)  residm     nres2    diffor    maxfor
 ETOT  1  -29.486860614702    -2.949E+01 2.957E-10 1.545E-06 6.649E-05 1.665E-04
 ETOT  2  -29.486860611999     2.703E-09 7.052E-11 2.299E-07 1.395E-05 1.643E-04
 ETOT  3  -29.486860611618     3.815E-10 1.525E-10 1.302E-08 3.405E-06 1.654E-04
 ETOT  4  -29.486860611679    -6.139E-11 1.998E-11 1.084E-09 5.066E-07 1.657E-04
 ETOT  5  -29.486860611717    -3.802E-11 3.081E-11 3.768E-10 2.564E-07 1.658E-04
 ETOT  6  -29.486860611794    -7.665E-11 8.114E-12 9.905E-11 2.559E-07 1.660E-04

 At SCF step    6, forces are converged : 
  for the second time, max diff in force=  2.559E-07 < toldff=  5.000E-07

 Cartesian components of stress tensor (hartree/bohr^3)
  sigma(1 1)=  9.93292099E-05  sigma(3 2)= -2.95063314E-07
  sigma(2 2)=  3.53838818E-06  sigma(3 1)= -1.16890500E-06
  sigma(3 3)=  4.87082943E-06  sigma(2 1)=  3.87786483E-07


--- !ResultsGS
iteration_state: {dtset: 1, itime: 2, icycle: 1, }
comment   : Summary of ground state results
lattice_vectors:
- [ 19.0000000,   0.0000000,   0.0000000, ]
- [  0.0000000,   9.4500000,   0.0000000, ]
- [  0.0000000,   0.0000000,   9.4500000, ]
lattice_lengths: [  19.00000,    9.45000,    9.45000, ]
lattice_angles: [ 90.000,  90.000,  90.000, ] # degrees, (23, 13, 12)
lattice_volume:   1.6967475E+03
convergence: {deltae: -7.665E-11, res2:  9.905E-11, residm:  8.114E-12, diffor:  2.559E-07, }
etotal    :  -2.94868606E+01
entropy   :   0.00000000E+00
fermie    :  -1.70541971E-01
cartesian_stress_tensor: # hartree/bohr^3
- [  9.93292099E-05,   3.87786483E-07,  -1.16890500E-06, ]
- [  3.87786483E-07,   3.53838818E-06,  -2.95063314E-07, ]
- [ -1.16890500E-06,  -2.95063314E-07,   4.87082943E-06, ]
pressure_GPa:  -1.0566E+00
xred      :
- [  5.0000E-01,   5.0000E-01,   5.0000E-01,  O]
- [  4.6914E-01,   4.6112E-01,   6.8112E-01,  H]
- [  4.6703E-01,   6.7975E-01,   4.6171E-01,  H]
- [  8.9784E-01,   5.0000E-01,   5.0000E-01,  N]
- [  9.4627E-01,   4.6929E-01,   3.2064E-01,  H]
- [  9.1895E-01,   3.4281E-01,   6.2655E-01,  H]
- [  9.3302E-01,   6.7411E-01,   5.8497E-01,  H]
- [  7.9409E-01,   5.1192E-01,   4.7288E-01,  H]
cartesian_forces: # hartree/bohr
- [  7.92252927E-03,   1.04073594E-04,  -2.80424246E-04, ]
- [ -7.14540688E-06,   2.74797742E-05,  -2.50697624E-06, ]
- [ -5.97972407E-06,  -7.58039719E-06,   2.96473963E-05, ]
- [ -7.71953389E-03,  -8.59505727E-05,   1.95587463E-04, ]
- [ -8.52189847E-05,   3.84003415E-05,   8.96253613E-05, ]
- [ -1.66034240E-04,   8.36127497E-06,  -4.15008100E-06, ]
- [ -2.30922602E-05,  -3.72770383E-05,  -1.00024714E-04, ]
- [  8.44752370E-05,  -4.75069764E-05,   7.22457966E-05, ]
force_length_stats: {min:   2.85040306E-05, max:   7.92817375E-03, mean:   2.02952967E-03, }
...

 Integrated electronic density in atomic spheres:
 ------------------------------------------------
 Atom  Sphere_radius  Integrated_density
    1        1.11262          3.31797000
    2        0.79977          0.35400818
    3        0.79977          0.34602560
    4        1.11029          2.30604535
    5        0.79977          0.33612119
    6        0.79977          0.32921738
    7        0.79977          0.33665757
    8        0.79977          0.31504211

 PAW TEST:
 ==== Compensation charge inside spheres ============
 The following values must be close to each other ...
 Compensation charge over spherical meshes =      1.217870975532912
 Compensation charge over fine fft grid    =      1.217886333363424

 ==== Results concerning PAW augmentation regions ====

 Total pseudopotential strength Dij (hartree):
 Atom #  1
   1.08410   1.72583  -0.00315  -0.00318   0.00246  -0.00473  -0.00479   0.00369
   1.72583   2.74684  -0.00479  -0.00484   0.00373  -0.00721  -0.00730   0.00562
  -0.00315  -0.00479  -0.40992   0.00323   0.00205  -0.44877   0.00432   0.00275
  -0.00318  -0.00484   0.00323  -0.41002   0.00188   0.00432  -0.44890   0.00252
   0.00246   0.00373   0.00205   0.00188  -0.40498   0.00275   0.00252  -0.44215
  -0.00473  -0.00721  -0.44877   0.00432   0.00275  -0.44566   0.00577   0.00366
  -0.00479  -0.00730   0.00432  -0.44890   0.00252   0.00577  -0.44584   0.00337
   0.00369   0.00562   0.00275   0.00252  -0.44215   0.00366   0.00337  -0.43683
 Atom #  8
  -0.04817


 Augmentation waves occupancies Rhoij:
 Atom #  1
   2.29624  -0.18603   0.14450   0.14653  -0.13157  -0.09193  -0.09313   0.07910
  -0.18603   0.03157  -0.09134  -0.09246   0.07562   0.00859   0.00873  -0.00907
   0.14450  -0.09134   1.10954  -0.11384  -0.07628  -0.07267   0.08127   0.05018
   0.14653  -0.09246  -0.11384   1.11327  -0.06973   0.08128  -0.07514   0.04587
  -0.13157   0.07562  -0.07628  -0.06973   0.89144   0.05010   0.04579   0.06015
  -0.09193   0.00859  -0.07267   0.08128   0.05010   0.01596  -0.00371   0.00112
  -0.09313   0.00873   0.08127  -0.07514   0.04579  -0.00371   0.01594   0.00125
   0.07910  -0.00907   0.05018   0.04587   0.06015   0.00112   0.00125   0.01218
 Atom #  8
   1.58436



---OUTPUT-----------------------------------------------------------------------

 Cartesian coordinates (xcart) [bohr]
  9.50000000000000E+00  4.72500000000000E+00  4.72500000000000E+00
  8.91356715423191E+00  4.35759743631612E+00  6.43658477835499E+00
  8.87357598590554E+00  6.42367334225390E+00  4.36316471911465E+00
  1.70589045315426E+01  4.72500000000000E+00  4.72500000000000E+00
  1.79792060459108E+01  4.43477402608764E+00  3.03000696162984E+00
  1.74600527303359E+01  3.23958587042609E+00  5.92090391465680E+00
  1.77274298376305E+01  6.37033433053510E+00  5.52794365826023E+00
  1.50877883608968E+01  4.83765012009765E+00  4.46870219654292E+00
 Reduced coordinates (xred)
  5.00000000000000E-01  5.00000000000000E-01  5.00000000000000E-01
  4.69135113380627E-01  4.61121421832394E-01  6.81120082365608E-01
  4.67030315047660E-01  6.79753792831100E-01  4.61710552287264E-01
  8.97837080607505E-01  5.00000000000000E-01  5.00000000000000E-01
  9.46274002416358E-01  4.69288256728851E-01  3.20635657315327E-01
  9.18950143701888E-01  3.42813319621809E-01  6.26550678799662E-01
  9.33022623033187E-01  6.74109452966677E-01  5.84967582884680E-01
  7.94094124257725E-01  5.11920647629381E-01  4.72878539316711E-01
 Cartesian forces (fcart) [Ha/bohr]; max,rms= 1.66034E-04 6.35736E-05 (free atoms)
  7.92252926610660E-03  1.04073593932855E-04 -2.80424245610973E-04
 -7.14540688151668E-06  2.74797742266934E-05 -2.50697623569246E-06
 -5.97972407489832E-06 -7.58039719374967E-06  2.96473962939694E-05
 -7.71953388700760E-03 -8.59505726982301E-05  1.95587462600272E-04
 -8.52189847098759E-05  3.84003414631547E-05  8.96253612592730E-05
 -1.66034240198392E-04  8.36127497302767E-06 -4.15008099757846E-06
 -2.30922602489472E-05 -3.72770383445041E-05 -1.00024713949367E-04
  8.44752370146336E-05 -4.75069763592467E-05  7.22457966400967E-05
 Reduced forces (fred)
 -1.50528056056025E-01 -9.83495462665478E-04  2.65000912102369E-03
  1.35762730748817E-04 -2.59683866442253E-04  2.36909254272938E-05
  1.13614757423068E-04  7.16347534809344E-05 -2.80167894978011E-04
  1.46671143853144E-01  8.12232911998275E-04 -1.84830152157257E-03
  1.61916070948764E-03 -3.62883226826812E-04 -8.46959663900130E-04
  3.15465056376944E-03 -7.90140484951115E-05  3.92182654271164E-05
  4.38752944729996E-04  3.52268012355564E-04  9.45233546821519E-04
 -1.60502950327804E-03  4.48940926594881E-04 -6.82722778248914E-04
 Total energy (etotal) [Ha]= -2.94868606117938E+01

 Difference of energy with previous step (new-old):
           Absolute (Ha)=-1.18047E-07
           Relative     =-4.00337E-09

--- Iteration: (  3/500) Internal Cycle: (1/1)
--------------------------------------------------------------------------------

---SELF-CONSISTENT-FIELD CONVERGENCE--------------------------------------------

--- !BeginCycle
iteration_state: {dtset: 1, itime: 3, icycle: 1, }
solver: {iscf: 17, nstep: 50, nline: 4, wfoptalg: 114, }
tolerances: {toldff: 5.00E-07, }
...

     iter   Etot(hartree)      deltaE(h)  residm     nres2    diffor    maxfor
 ETOT  1  -29.486860759687    -2.949E+01 4.373E-11 1.732E-07 1.705E-04 1.102E-04
 ETOT  2  -29.486860759571     1.162E-10 7.967E-12 2.469E-08 3.478E-06 1.114E-04
 ETOT  3  -29.486860759580    -9.660E-12 1.727E-11 3.454E-09 1.142E-06 1.115E-04
 ETOT  4  -29.486860759609    -2.875E-11 1.932E-12 3.648E-10 4.989E-07 1.117E-04
 ETOT  5  -29.486860759623    -1.349E-11 3.259E-12 9.900E-11 1.498E-07 1.119E-04

 At SCF step    5, forces are converged : 
  for the second time, max diff in force=  1.498E-07 < toldff=  5.000E-07

 Cartesian components of stress tensor (hartree/bohr^3)
  sigma(1 1)=  9.91014540E-05  sigma(3 2)= -3.40564944E-07
  sigma(2 2)=  3.37462815E-06  sigma(3 1)= -1.15816537E-06
  sigma(3 3)=  4.62614147E-06  sigma(2 1)=  4.24752716E-07


--- !ResultsGS
iteration_state: {dtset: 1, itime: 3, icycle: 1, }
comment   : Summary of ground state results
lattice_vectors:
- [ 19.0000000,   0.0000000,   0.0000000, ]
- [  0.0000000,   9.4500000,   0.0000000, ]
- [  0.0000000,   0.0000000,   9.4500000, ]
lattice_lengths: [  19.00000,    9.45000,    9.45000, ]
lattice_angles: [ 90.000,  90.000,  90.000, ] # degrees, (23, 13, 12)
lattice_volume:   1.6967475E+03
convergence: {deltae: -1.349E-11, res2:  9.900E-11, residm:  3.259E-12, diffor:  1.498E-07, }
etotal    :  -2.94868608E+01
entropy   :   0.00000000E+00
fermie    :  -1.70539309E-01
cartesian_stress_tensor: # hartree/bohr^3
- [  9.91014540E-05,   4.24752716E-07,  -1.15816537E-06, ]
- [  4.24752716E-07,   3.37462815E-06,  -3.40564944E-07, ]
- [ -1.15816537E-06,  -3.40564944E-07,   4.62614147E-06, ]
pressure_GPa:  -1.0504E+00
xred      :
- [  5.0000E-01,   5.0000E-01,   5.0000E-01,  O]
- [  4.6913E-01,   4.6113E-01,   6.8112E-01,  H]
- [  4.6703E-01,   6.7975E-01,   4.6172E-01,  H]
- [  8.9784E-01,   5.0000E-01,   5.0000E-01,  N]
- [  9.4626E-01,   4.6930E-01,   3.2067E-01,  H]
- [  9.1892E-01,   3.4282E-01,   6.2655E-01,  H]
- [  9.3302E-01,   6.7409E-01,   5.8493E-01,  H]
- [  7.9411E-01,   5.1190E-01,   4.7291E-01,  H]
cartesian_forces: # hartree/bohr
- [  7.92668456E-03,   9.30008797E-05,  -2.78448157E-04, ]
- [ -8.05177711E-06,   1.58324256E-05,   1.00013637E-05, ]
- [ -1.02027109E-05,   1.45784404E-05,   1.59863723E-05, ]
- [ -7.77638427E-03,  -1.20940139E-04,   2.83296131E-04, ]
- [  3.71065300E-06,  -1.21440032E-05,  -7.81418003E-05, ]
- [ -1.11857866E-04,  -3.53374810E-05,   3.76654699E-05, ]
- [  1.92195089E-05,   6.13484533E-05,  -2.53333510E-05, ]
- [ -4.31180971E-05,  -1.63385762E-05,   3.49739706E-05, ]
force_length_stats: {min:   2.03844081E-05, max:   7.93211892E-03, mean:   2.01103148E-03, }
...

 Integrated electronic density in atomic spheres:
 ------------------------------------------------
 Atom  Sphere_radius  Integrated_density
    1        1.11262          3.31798345
    2        0.79977          0.35401041
    3        0.79977          0.34602836
    4        1.11029          2.30627633
    5        0.79977          0.33740435
    6        0.79977          0.32921723
    7        0.79977          0.33666120
    8        0.79977          0.31505915

 PAW TEST:
 ==== Compensation charge inside spheres ============
 The following values must be close to each other ...
 Compensation charge over spherical meshes =      1.217958507116386
 Compensation charge over fine fft grid    =      1.217973807204584

 ==== Results concerning PAW augmentation regions ====

 Total pseudopotential strength Dij (hartree):
 Atom #  1
   1.08409   1.72582  -0.00315  -0.00318   0.00246  -0.00473  -0.00479   0.00369
   1.72582   2.74684  -0.00479  -0.00484   0.00373  -0.00721  -0.00730   0.00562
  -0.00315  -0.00479  -0.40992   0.00323   0.00205  -0.44877   0.00432   0.00275
  -0.00318  -0.00484   0.00323  -0.41002   0.00188   0.00432  -0.44890   0.00252
   0.00246   0.00373   0.00205   0.00188  -0.40497   0.00275   0.00252  -0.44215
  -0.00473  -0.00721  -0.44877   0.00432   0.00275  -0.44566   0.00577   0.00366
  -0.00479  -0.00730   0.00432  -0.44890   0.00252   0.00577  -0.44584   0.00337
   0.00369   0.00562   0.00275   0.00252  -0.44215   0.00366   0.00337  -0.43683
 Atom #  8
  -0.04817


 Augmentation waves occupancies Rhoij:
 Atom #  1
   2.29626  -0.18604   0.14453   0.14654  -0.13159  -0.09194  -0.09314   0.07911
  -0.18604   0.03157  -0.09135  -0.09247   0.07563   0.00859   0.00874  -0.00907
   0.14453  -0.09135   1.10957  -0.11382  -0.07629  -0.07268   0.08126   0.05019
   0.14654  -0.09247  -0.11382   1.11328  -0.06974   0.08126  -0.07515   0.04588
  -0.13159   0.07563  -0.07629  -0.06974   0.89146   0.05011   0.04579   0.06015
  -0.09194   0.00859  -0.07268   0.08126   0.05011   0.01596  -0.00371   0.00112
  -0.09314   0.00874   0.08126  -0.07515   0.04579  -0.00371   0.01594   0.00125
   0.07911  -0.00907   0.05019   0.04588   0.06015   0.00112   0.00125   0.01218
 Atom #  8
   1.58497



---OUTPUT-----------------------------------------------------------------------

 Cartesian coordinates (xcart) [bohr]
  9.50000000000000E+00  4.72500000000000E+00  4.72500000000000E+00
  8.91354167927888E+00  4.35769804692615E+00  6.43657387843900E+00
  8.87355522631444E+00  6.42364269027148E+00  4.36327347397272E+00
  1.70589045315426E+01  4.72500000000000E+00  4.72500000000000E+00
  1.79788866947083E+01  4.43491843309377E+00  3.03035225186842E+00
  1.74594469928067E+01  3.23962213833831E+00  5.92088338111100E+00
  1.77273410335790E+01  6.37018668854696E+00  5.52757320839537E+00
  1.50881085504442E+01  4.83747543748123E+00  4.46896713299793E+00
 Reduced coordinates (xred)
  5.00000000000000E-01  5.00000000000000E-01  5.00000000000000E-01
  4.69133772593625E-01  4.61132068457794E-01  6.81118928935344E-01
  4.67029222437602E-01  6.79750549235077E-01  4.61722060737854E-01
  8.97837080607505E-01  5.00000000000000E-01  5.00000000000000E-01
  9.46257194458329E-01  4.69303537893521E-01  3.20672195964912E-01
  9.18918262779301E-01  3.42817157496118E-01  6.26548505937672E-01
  9.33017949135735E-01  6.74093829475868E-01  5.84928381840780E-01
  7.94110976339168E-01  5.11902162696426E-01  4.72906574920416E-01
 Cartesian forces (fcart) [Ha/bohr]; max,rms= 1.11858E-04 4.12033E-05 (free atoms)
  7.92668455905954E-03  9.30008796943751E-05 -2.78448156552407E-04
 -8.05177710799643E-06  1.58324256418668E-05  1.00013637181064E-05
 -1.02027108706784E-05  1.45784404254237E-05  1.59863723124317E-05
 -7.77638427029128E-03 -1.20940138685225E-04  2.83296131297601E-04
  3.71065300462419E-06 -1.21440032142188E-05 -7.81418003315477E-05
 -1.11857865622986E-04 -3.53374809720930E-05  3.76654699367305E-05
  1.92195089308086E-05  6.13484533173176E-05 -2.53333510044946E-05
 -4.31180971020370E-05 -1.63385762074467E-05  3.49739706235803E-05
 Reduced forces (fred)
 -1.50607006622131E-01 -8.78858313111845E-04  2.63133507942025E-03
  1.52983765051932E-04 -1.49616422315641E-04 -9.45128871361052E-05
  1.93851506542890E-04 -1.37766262020254E-04 -1.51071218352479E-04
  1.47751301135534E-01  1.14288431057537E-03 -2.67714844076233E-03
 -7.05024070878596E-05  1.14760830374368E-04  7.38440013133126E-04
  2.12529944683674E-03  3.33939195186279E-04 -3.55938690902103E-04
 -3.65170669685364E-04 -5.79742883848651E-04  2.39400166992474E-04
  8.19243844938702E-04  1.54399545160372E-04 -3.30504022392834E-04
 Total energy (etotal) [Ha]= -2.94868607596226E+01

 Difference of energy with previous step (new-old):
           Absolute (Ha)=-1.47829E-07
           Relative     =-5.01338E-09

--- Iteration: (  4/500) Internal Cycle: (1/1)
--------------------------------------------------------------------------------

---SELF-CONSISTENT-FIELD CONVERGENCE--------------------------------------------

--- !BeginCycle
iteration_state: {dtset: 1, itime: 4, icycle: 1, }
solver: {iscf: 17, nstep: 50, nline: 4, wfoptalg: 114, }
tolerances: {toldff: 5.00E-07, }
...

     iter   Etot(hartree)      deltaE(h)  residm     nres2    diffor    maxfor
 ETOT  1  -29.486860793163    -2.949E+01 1.912E-11 2.097E-07 2.005E-05 9.360E-05
 ETOT  2  -29.486860792910     2.529E-10 4.063E-12 3.130E-08 4.574E-06 9.310E-05
 ETOT  3  -29.486860792890     2.032E-11 2.666E-12 2.806E-09 1.251E-06 9.302E-05
 ETOT  4  -29.486860792911    -2.117E-11 7.503E-13 3.502E-10 3.973E-07 9.326E-05
 ETOT  5  -29.486860792919    -7.979E-12 9.794E-13 7.832E-11 1.545E-07 9.334E-05

 At SCF step    5, forces are converged : 
  for the second time, max diff in force=  1.545E-07 < toldff=  5.000E-07

 Cartesian components of stress tensor (hartree/bohr^3)
  sigma(1 1)=  9.90715606E-05  sigma(3 2)= -3.48862622E-07
  sigma(2 2)=  3.36739748E-06  sigma(3 1)= -1.17021228E-06
  sigma(3 3)=  4.60457512E-06  sigma(2 1)=  4.39747658E-07


--- !ResultsGS
iteration_state: {dtset: 1, itime: 4, icycle: 1, }
comment   : Summary of ground state results
lattice_vectors:
- [ 19.0000000,   0.0000000,   0.0000000, ]
- [  0.0000000,   9.4500000,   0.0000000, ]
- [  0.0000000,   0.0000000,   9.4500000, ]
lattice_lengths: [  19.00000,    9.45000,    9.45000, ]
lattice_angles: [ 90.000,  90.000,  90.000, ] # degrees, (23, 13, 12)
lattice_volume:   1.6967475E+03
convergence: {deltae: -7.979E-12, res2:  7.832E-11, residm:  9.794E-13, diffor:  1.545E-07, }
etotal    :  -2.94868608E+01
entropy   :   0.00000000E+00
fermie    :  -1.70539285E-01
cartesian_stress_tensor: # hartree/bohr^3
- [  9.90715606E-05,   4.39747658E-07,  -1.17021228E-06, ]
- [  4.39747658E-07,   3.36739748E-06,  -3.48862622E-07, ]
- [ -1.17021228E-06,  -3.48862622E-07,   4.60457512E-06, ]
pressure_GPa:  -1.0498E+00
xred      :
- [  5.0000E-01,   5.0000E-01,   5.0000E-01,  O]
- [  4.6913E-01,   4.6114E-01,   6.8112E-01,  H]
- [  4.6703E-01,   6.7975E-01,   4.6173E-01,  H]
- [  8.9784E-01,   5.0000E-01,   5.0000E-01,  N]
- [  9.4625E-01,   4.6931E-01,   3.2067E-01,  H]
- [  9.1890E-01,   3.4281E-01,   6.2655E-01,  H]
- [  9.3302E-01,   6.7410E-01,   5.8492E-01,  H]
- [  7.9411E-01,   5.1190E-01,   4.7292E-01,  H]
cartesian_forces: # hartree/bohr
- [  7.92339138E-03,   9.65173757E-05,  -2.74500399E-04, ]
- [ -6.54898105E-06,   1.26191211E-05,   9.55879781E-06, ]
- [ -8.49729442E-06,   1.41345928E-05,   1.27639268E-05, ]
- [ -7.78886944E-03,  -1.25432949E-04,   2.92274666E-04, ]
- [  1.12676323E-05,  -2.28701560E-05,  -9.01816703E-05, ]
- [ -9.33427864E-05,  -3.47512329E-05,   3.94750205E-05, ]
- [  2.30515257E-05,   6.50986446E-05,  -1.32727793E-05, ]
- [ -6.04520395E-05,  -5.31539657E-06,   2.38824370E-05, ]
force_length_stats: {min:   1.71318996E-05, max:   7.92873237E-03, mean:   2.01230920E-03, }
...

 Integrated electronic density in atomic spheres:
 ------------------------------------------------
 Atom  Sphere_radius  Integrated_density
    1        1.11262          3.31798135
    2        0.79977          0.35401094
    3        0.79977          0.34602888
    4        1.11029          2.30629834
    5        0.79977          0.33740421
    6        0.79977          0.32921665
    7        0.79977          0.33666032
    8        0.79977          0.31506329

 PAW TEST:
 ==== Compensation charge inside spheres ============
 The following values must be close to each other ...
 Compensation charge over spherical meshes =      1.217964448447123
 Compensation charge over fine fft grid    =      1.217979789531479

 ==== Results concerning PAW augmentation regions ====

 Total pseudopotential strength Dij (hartree):
 Atom #  1
   1.08410   1.72582  -0.00315  -0.00318   0.00246  -0.00473  -0.00479   0.00369
   1.72582   2.74684  -0.00479  -0.00484   0.00373  -0.00722  -0.00730   0.00562
  -0.00315  -0.00479  -0.40992   0.00323   0.00205  -0.44877   0.00432   0.00275
  -0.00318  -0.00484   0.00323  -0.41002   0.00188   0.00432  -0.44890   0.00252
   0.00246   0.00373   0.00205   0.00188  -0.40497   0.00275   0.00252  -0.44215
  -0.00473  -0.00722  -0.44877   0.00432   0.00275  -0.44566   0.00577   0.00366
  -0.00479  -0.00730   0.00432  -0.44890   0.00252   0.00577  -0.44584   0.00337
   0.00369   0.00562   0.00275   0.00252  -0.44215   0.00366   0.00337  -0.43683
 Atom #  8
  -0.04817


 Augmentation waves occupancies Rhoij:
 Atom #  1
   2.29625  -0.18604   0.14453   0.14655  -0.13159  -0.09195  -0.09314   0.07911
  -0.18604   0.03157  -0.09135  -0.09247   0.07563   0.00859   0.00874  -0.00907
   0.14453  -0.09135   1.10956  -0.11381  -0.07630  -0.07268   0.08125   0.05019
   0.14655  -0.09247  -0.11381   1.11328  -0.06974   0.08125  -0.07515   0.04588
  -0.13159   0.07563  -0.07630  -0.06974   0.89146   0.05011   0.04579   0.06015
  -0.09195   0.00859  -0.07268   0.08125   0.05011   0.01596  -0.00371   0.00112
  -0.09314   0.00874   0.08125  -0.07515   0.04579  -0.00371   0.01594   0.00125
   0.07911  -0.00907   0.05019   0.04588   0.06015   0.00112   0.00125   0.01218
 Atom #  8
   1.58506



---OUTPUT-----------------------------------------------------------------------

 Cartesian coordinates (xcart) [bohr]
  9.50000000000000E+00  4.72500000000000E+00  4.72500000000000E+00
  8.91352737209751E+00  4.35773866771174E+00  6.43658138282272E+00
  8.87353990441746E+00  6.42364998415908E+00  4.36331627666466E+00
  1.70589045315426E+01  4.72500000000000E+00  4.72500000000000E+00
  1.79788131385004E+01  4.43494008535680E+00  3.03035489203286E+00
  1.74591853736221E+01  3.23959472653056E+00  5.92091726983126E+00
  1.77273394854761E+01  6.37021420207181E+00  5.52745770254622E+00
  1.50881401724927E+01  4.83741707146019E+00  4.46906675014922E+00
 Reduced coordinates (xred)
  5.00000000000000E-01  5.00000000000000E-01  5.00000000000000E-01
  4.69133019584079E-01  4.61136366953623E-01  6.81119723050023E-01
  4.67028416021972E-01  6.79751321075035E-01  4.61726590123245E-01
  8.97837080607505E-01  5.00000000000000E-01  5.00000000000000E-01
  9.46253323078969E-01  4.69305829138286E-01  3.20672475347393E-01
  9.18904493348534E-01  3.42814256775721E-01  6.26552092045636E-01
  9.33017867656636E-01  6.74096740959980E-01  5.84916158999600E-01
  7.94112640657508E-01  5.11895986397904E-01  4.72917116417907E-01
 Cartesian forces (fcart) [Ha/bohr]; max,rms= 9.33428E-05 4.09528E-05 (free atoms)
  7.92339138148395E-03  9.65173757450342E-05 -2.74500398952238E-04
 -6.54898104518417E-06  1.26191210932877E-05  9.55879781090088E-06
 -8.49729442051411E-06  1.41345928403951E-05  1.27639267940239E-05
 -7.78886943804971E-03 -1.25432948809228E-04  2.92274666368042E-04
  1.12676322529077E-05 -2.28701560330741E-05 -9.01816702715614E-05
 -9.33427864083102E-05 -3.47512329059780E-05  3.94750205235717E-05
  2.30515256828921E-05  6.50986446390039E-05 -1.32727792815928E-05
 -6.04520394960295E-05 -5.31539656944107E-06  2.38824370088529E-05
 Reduced forces (fred)
 -1.50544436248195E-01 -9.12089200790574E-04  2.59402877009864E-03
  1.24430639858499E-04 -1.19250694331568E-04 -9.03306393130133E-05
  1.61448593989768E-04 -1.33571902341734E-04 -1.20619108203526E-04
  1.47988519322944E-01  1.18534136624720E-03 -2.76199559717800E-03
 -2.14085012805247E-04  2.16122974512550E-04  8.52216784066256E-04
  1.77351294175789E-03  3.28399150961492E-04 -3.73038943947753E-04
 -4.37978987974950E-04 -6.15182191838586E-04  1.25427764211052E-04
  1.14858875042456E-03  5.02304975812181E-05 -2.25689029733660E-04
 Total energy (etotal) [Ha]= -2.94868607929189E+01

 Difference of energy with previous step (new-old):
           Absolute (Ha)=-3.32963E-08
           Relative     =-1.12919E-09

--- Iteration: (  5/500) Internal Cycle: (1/1)
--------------------------------------------------------------------------------

---SELF-CONSISTENT-FIELD CONVERGENCE--------------------------------------------

--- !BeginCycle
iteration_state: {dtset: 1, itime: 5, icycle: 1, }
solver: {iscf: 17, nstep: 50, nline: 4, wfoptalg: 114, }
tolerances: {toldff: 5.00E-07, }
...

     iter   Etot(hartree)      deltaE(h)  residm     nres2    diffor    maxfor
 ETOT  1  -29.486860888750    -2.949E+01 2.074E-10 1.339E-06 7.152E-05 8.223E-05
 ETOT  2  -29.486860886253     2.497E-09 3.972E-11 2.014E-07 1.329E-05 7.047E-05
 ETOT  3  -29.486860885913     3.392E-10 3.078E-11 9.868E-09 3.253E-06 7.362E-05
 ETOT  4  -29.486860885962    -4.886E-11 9.742E-12 8.996E-10 5.485E-07 7.348E-05
 ETOT  5  -29.486860885977    -1.431E-11 1.395E-11 1.862E-10 2.556E-07 7.349E-05
 ETOT  6  -29.486860886002    -2.588E-11 3.719E-12 4.092E-11 2.818E-07 7.350E-05

 At SCF step    6, forces are converged : 
  for the second time, max diff in force=  2.818E-07 < toldff=  5.000E-07

 Cartesian components of stress tensor (hartree/bohr^3)
  sigma(1 1)=  9.90561338E-05  sigma(3 2)= -3.66166876E-07
  sigma(2 2)=  3.42096455E-06  sigma(3 1)= -1.23816091E-06
  sigma(3 3)=  4.62899583E-06  sigma(2 1)=  4.98898237E-07


--- !ResultsGS
iteration_state: {dtset: 1, itime: 5, icycle: 1, }
comment   : Summary of ground state results
lattice_vectors:
- [ 19.0000000,   0.0000000,   0.0000000, ]
- [  0.0000000,   9.4500000,   0.0000000, ]
- [  0.0000000,   0.0000000,   9.4500000, ]
lattice_lengths: [  19.00000,    9.45000,    9.45000, ]
lattice_angles: [ 90.000,  90.000,  90.000, ] # degrees, (23, 13, 12)
lattice_volume:   1.6967475E+03
convergence: {deltae: -2.588E-11, res2:  4.092E-11, residm:  3.719E-12, diffor:  2.818E-07, }
etotal    :  -2.94868609E+01
entropy   :   0.00000000E+00
fermie    :  -1.70542552E-01
cartesian_stress_tensor: # hartree/bohr^3
- [  9.90561338E-05,   4.98898237E-07,  -1.23816091E-06, ]
- [  4.98898237E-07,   3.42096455E-06,  -3.66166876E-07, ]
- [ -1.23816091E-06,  -3.66166876E-07,   4.62899583E-06, ]
pressure_GPa:  -1.0504E+00
xred      :
- [  5.0000E-01,   5.0000E-01,   5.0000E-01,  O]
- [  4.6913E-01,   4.6115E-01,   6.8112E-01,  H]
- [  4.6702E-01,   6.7976E-01,   4.6174E-01,  H]
- [  8.9784E-01,   5.0000E-01,   5.0000E-01,  N]
- [  9.4624E-01,   4.6931E-01,   3.2065E-01,  H]
- [  9.1885E-01,   3.4280E-01,   6.2657E-01,  H]
- [  9.3302E-01,   6.7412E-01,   5.8487E-01,  H]
- [  7.9411E-01,   5.1188E-01,   4.7296E-01,  H]
cartesian_forces: # hartree/bohr
- [  7.90608316E-03,   1.18591179E-04,  -2.55422433E-04, ]
- [  1.45085220E-06,   1.17673475E-06,   2.20184797E-06, ]
- [  1.75857185E-06,   3.02097348E-06,   2.06576779E-06, ]
- [ -7.83679780E-03,  -1.29768751E-04,   2.89867759E-04, ]
- [  3.70684354E-06,  -5.19838981E-05,  -6.29790341E-05, ]
- [ -2.40975043E-05,  -9.12385052E-06,   2.72477578E-05, ]
- [  2.13952364E-05,   3.26240742E-05,   1.03083356E-05, ]
- [ -7.34993601E-05,   3.54635385E-05,  -1.32900005E-05, ]
force_length_stats: {min:   2.88752684E-06, max:   7.91109698E-03, mean:   2.00044482E-03, }
...

 Integrated electronic density in atomic spheres:
 ------------------------------------------------
 Atom  Sphere_radius  Integrated_density
    1        1.11262          3.31796543
    2        0.79977          0.35401252
    3        0.79977          0.34603019
    4        1.11029          2.30628709
    5        0.79977          0.33739773
    6        0.79977          0.32954314
    7        0.79977          0.33665348
    8        0.79977          0.31485593

 PAW TEST:
 ==== Compensation charge inside spheres ============
 The following values must be close to each other ...
 Compensation charge over spherical meshes =      1.217948941516773
 Compensation charge over fine fft grid    =      1.217964275505244

 ==== Results concerning PAW augmentation regions ====

 Total pseudopotential strength Dij (hartree):
 Atom #  1
   1.08410   1.72583  -0.00315  -0.00318   0.00246  -0.00473  -0.00479   0.00369
   1.72583   2.74684  -0.00479  -0.00484   0.00373  -0.00722  -0.00730   0.00562
  -0.00315  -0.00479  -0.40992   0.00323   0.00205  -0.44877   0.00432   0.00275
  -0.00318  -0.00484   0.00323  -0.41002   0.00188   0.00432  -0.44890   0.00252
   0.00246   0.00373   0.00205   0.00188  -0.40498   0.00275   0.00252  -0.44215
  -0.00473  -0.00722  -0.44877   0.00432   0.00275  -0.44567   0.00577   0.00366
  -0.00479  -0.00730   0.00432  -0.44890   0.00252   0.00577  -0.44584   0.00337
   0.00369   0.00562   0.00275   0.00252  -0.44215   0.00366   0.00337  -0.43683
 Atom #  8
  -0.04817


 Augmentation waves occupancies Rhoij:
 Atom #  1
   2.29622  -0.18602   0.14454   0.14656  -0.13159  -0.09195  -0.09315   0.07911
  -0.18602   0.03157  -0.09136  -0.09248   0.07563   0.00860   0.00874  -0.00907
   0.14454  -0.09136   1.10953  -0.11375  -0.07631  -0.07267   0.08122   0.05020
   0.14656  -0.09248  -0.11375   1.11325  -0.06975   0.08122  -0.07514   0.04589
  -0.13159   0.07563  -0.07631  -0.06975   0.89146   0.05012   0.04580   0.06014
  -0.09195   0.00860  -0.07267   0.08122   0.05012   0.01595  -0.00371   0.00111
  -0.09315   0.00874   0.08122  -0.07514   0.04580  -0.00371   0.01594   0.00125
   0.07911  -0.00907   0.05020   0.04589   0.06014   0.00111   0.00125   0.01219
 Atom #  8
   1.58515



---OUTPUT-----------------------------------------------------------------------

 Cartesian coordinates (xcart) [bohr]
  9.50000000000000E+00  4.72500000000000E+00  4.72500000000000E+00
  8.91346729434069E+00  4.35790219348849E+00  6.43662417439912E+00
  8.87347332684636E+00  6.42369964847271E+00  4.36348816026002E+00
  1.70589045315426E+01  4.72500000000000E+00  4.72500000000000E+00
  1.79785798457715E+01  4.43495262864012E+00  3.03017869388707E+00
  1.74581059072489E+01  3.23943555660050E+00  5.92111486650695E+00
  1.77273832397043E+01  6.37043720967329E+00  5.52703914077643E+00
  1.50881072968486E+01  4.83722121639876E+00  4.46944692889948E+00
 Reduced coordinates (xred)
  5.00000000000000E-01  5.00000000000000E-01  5.00000000000000E-01
  4.69129857596878E-01  4.61153671268624E-01  6.81124251259166E-01
  4.67024911939282E-01  6.79756576557958E-01  4.61744778863494E-01
  8.97837080607505E-01  5.00000000000000E-01  5.00000000000000E-01
  9.46241044514290E-01  4.69307156469854E-01  3.20653830040960E-01
  9.18847679328888E-01  3.42797413396878E-01  6.26573001746767E-01
  9.33020170510753E-01  6.74120339647967E-01  5.84871866748829E-01
  7.94110910360454E-01  5.11875260994578E-01  4.72957346973490E-01
 Cartesian forces (fcart) [Ha/bohr]; max,rms= 7.34994E-05 3.03484E-05 (free atoms)
  7.90608316134019E-03  1.18591179035254E-04 -2.55422433378532E-04
  1.45085220135305E-06  1.17673475297449E-06  2.20184797069627E-06
  1.75857185029662E-06  3.02097348252029E-06  2.06576778864991E-06
 -7.83679780092351E-03 -1.29768751454571E-04  2.89867758807116E-04
  3.70684353746952E-06 -5.19838980533964E-05 -6.29790340599488E-05
 -2.40975043315084E-05 -9.12385052034578E-06  2.72477578108052E-05
  2.13952364080032E-05  3.26240742467019E-05  1.03083355921663E-05
 -7.34993600822943E-05  3.54635385108628E-05 -1.32900005309530E-05
 Reduced forces (fred)
 -1.50215580065464E-01 -1.12068664188315E-03  2.41374199542713E-03
 -2.75661918257079E-05 -1.11201434156089E-05 -2.08074633230798E-05
 -3.34128651556357E-05 -2.85481994098167E-05 -1.95215056027417E-05
  1.48899158217547E-01  1.22631470124570E-03 -2.73925032072725E-03
 -7.04300272119209E-05  4.91247836604595E-04  5.95151871866516E-04
  4.57852582298660E-04  8.62203874172677E-05 -2.57491311312109E-04
 -4.06509491752062E-04 -3.08297501631333E-04 -9.74137713459718E-05
  1.39648784156359E-03 -3.35130438927653E-04  1.25590505017505E-04
 Total energy (etotal) [Ha]= -2.94868608860024E+01

 Difference of energy with previous step (new-old):
           Absolute (Ha)=-9.30835E-08
           Relative     =-3.15678E-09

--- Iteration: (  6/500) Internal Cycle: (1/1)
--------------------------------------------------------------------------------

---SELF-CONSISTENT-FIELD CONVERGENCE--------------------------------------------

--- !BeginCycle
iteration_state: {dtset: 1, itime: 6, icycle: 1, }
solver: {iscf: 17, nstep: 50, nline: 4, wfoptalg: 114, }
tolerances: {toldff: 5.00E-07, }
...

     iter   Etot(hartree)      deltaE(h)  residm     nres2    diffor    maxfor
 ETOT  1  -29.486860907152    -2.949E+01 2.536E-11 3.721E-07 3.936E-05 5.285E-05
 ETOT  2  -29.486860906473     6.784E-10 5.660E-12 5.456E-08 6.746E-06 5.186E-05
 ETOT  3  -29.486860906384     8.930E-11 2.972E-12 2.921E-09 1.724E-06 5.223E-05
 ETOT  4  -29.486860906398    -1.350E-11 1.123E-12 1.624E-10 1.611E-07 5.234E-05
 ETOT  5  -29.486860906404    -6.271E-12 1.707E-12 6.475E-11 8.288E-08 5.239E-05

 At SCF step    5, forces are converged : 
  for the second time, max diff in force=  8.288E-08 < toldff=  5.000E-07

 Cartesian components of stress tensor (hartree/bohr^3)
  sigma(1 1)=  9.91070951E-05  sigma(3 2)= -3.61244192E-07
  sigma(2 2)=  3.46785332E-06  sigma(3 1)= -1.26453560E-06
  sigma(3 3)=  4.68421464E-06  sigma(2 1)=  5.13787405E-07


--- !ResultsGS
iteration_state: {dtset: 1, itime: 6, icycle: 1, }
comment   : Summary of ground state results
lattice_vectors:
- [ 19.0000000,   0.0000000,   0.0000000, ]
- [  0.0000000,   9.4500000,   0.0000000, ]
- [  0.0000000,   0.0000000,   9.4500000, ]
lattice_lengths: [  19.00000,    9.45000,    9.45000, ]
lattice_angles: [ 90.000,  90.000,  90.000, ] # degrees, (23, 13, 12)
lattice_volume:   1.6967475E+03
convergence: {deltae: -6.271E-12, res2:  6.475E-11, residm:  1.707E-12, diffor:  8.288E-08, }
etotal    :  -2.94868609E+01
entropy   :   0.00000000E+00
fermie    :  -1.70545734E-01
cartesian_stress_tensor: # hartree/bohr^3
- [  9.91070951E-05,   5.13787405E-07,  -1.26453560E-06, ]
- [  5.13787405E-07,   3.46785332E-06,  -3.61244192E-07, ]
- [ -1.26453560E-06,  -3.61244192E-07,   4.68421464E-06, ]
pressure_GPa:  -1.0519E+00
xred      :
- [  5.0000E-01,   5.0000E-01,   5.0000E-01,  O]
- [  4.6913E-01,   4.6116E-01,   6.8113E-01,  H]
- [  4.6702E-01,   6.7976E-01,   4.6175E-01,  H]
- [  8.9784E-01,   5.0000E-01,   5.0000E-01,  N]
- [  9.4624E-01,   4.6930E-01,   3.2064E-01,  H]
- [  9.1883E-01,   3.4279E-01,   6.2658E-01,  H]
- [  9.3302E-01,   6.7413E-01,   5.8486E-01,  H]
- [  7.9411E-01,   5.1187E-01,   4.7297E-01,  H]
cartesian_forces: # hartree/bohr
- [  7.90038120E-03,   1.26699102E-04,  -2.49298423E-04, ]
- [  4.20602339E-06,  -1.71786791E-06,  -1.19299309E-06, ]
- [  5.38000162E-06,  -2.22150058E-06,  -4.67527997E-07, ]
- [ -7.85937354E-03,  -1.23771162E-04,   2.68303916E-04, ]
- [ -1.57963130E-05,  -5.23856633E-05,  -1.86361403E-05, ]
- [ -7.51289155E-06,   7.94564684E-06,   1.52214867E-05, ]
- [  1.39268723E-05,   1.60819440E-06,   4.35747144E-06, ]
- [ -4.12113532E-05,   4.38432508E-05,  -1.82877902E-05, ]
force_length_stats: {min:   4.69733280E-06, max:   7.90532893E-03, mean:   1.99186325E-03, }
...

 Integrated electronic density in atomic spheres:
 ------------------------------------------------
 Atom  Sphere_radius  Integrated_density
    1        1.11262          3.31795873
    2        0.79977          0.35401280
    3        0.79977          0.34603037
    4        1.11029          2.30623285
    5        0.79977          0.33612001
    6        0.79977          0.32954211
    7        0.79977          0.33665005
    8        0.79977          0.31485647

 PAW TEST:
 ==== Compensation charge inside spheres ============
 The following values must be close to each other ...
 Compensation charge over spherical meshes =      1.217925128332127
 Compensation charge over fine fft grid    =      1.217940445462846

 ==== Results concerning PAW augmentation regions ====

 Total pseudopotential strength Dij (hartree):
 Atom #  1
   1.08410   1.72583  -0.00315  -0.00318   0.00246  -0.00473  -0.00479   0.00369
   1.72583   2.74684  -0.00479  -0.00484   0.00373  -0.00722  -0.00730   0.00562
  -0.00315  -0.00479  -0.40992   0.00323   0.00205  -0.44877   0.00432   0.00275
  -0.00318  -0.00484   0.00323  -0.41002   0.00188   0.00432  -0.44891   0.00252
   0.00246   0.00373   0.00205   0.00188  -0.40498   0.00275   0.00252  -0.44215
  -0.00473  -0.00722  -0.44877   0.00432   0.00275  -0.44567   0.00577   0.00366
  -0.00479  -0.00730   0.00432  -0.44891   0.00252   0.00577  -0.44585   0.00337
   0.00369   0.00562   0.00275   0.00252  -0.44215   0.00366   0.00337  -0.43683
 Atom #  8
  -0.04817


 Augmentation waves occupancies Rhoij:
 Atom #  1
   2.29621  -0.18601   0.14454   0.14656  -0.13159  -0.09195  -0.09315   0.07911
  -0.18601   0.03157  -0.09136  -0.09248   0.07563   0.00860   0.00874  -0.00907
   0.14454  -0.09136   1.10952  -0.11373  -0.07631  -0.07267   0.08121   0.05020
   0.14656  -0.09248  -0.11373   1.11324  -0.06976   0.08121  -0.07513   0.04589
  -0.13159   0.07563  -0.07631  -0.06976   0.89145   0.05012   0.04581   0.06014
  -0.09195   0.00860  -0.07267   0.08121   0.05012   0.01595  -0.00370   0.00111
  -0.09315   0.00874   0.08121  -0.07513   0.04581  -0.00370   0.01593   0.00125
   0.07911  -0.00907   0.05020   0.04589   0.06014   0.00111   0.00125   0.01219
 Atom #  8
   1.58502



---OUTPUT-----------------------------------------------------------------------

 Cartesian coordinates (xcart) [bohr]
  9.50000000000000E+00  4.72500000000000E+00  4.72500000000000E+00
  8.91345180877087E+00  4.35794899029818E+00  6.43664039698201E+00
  8.87345597903838E+00  6.42371987496497E+00  4.36353819174279E+00
  1.70589045315426E+01  4.72500000000000E+00  4.72500000000000E+00
  1.79785268666365E+01  4.43488874797298E+00  3.03003584681674E+00
  1.74577747652920E+01  3.23937472045932E+00  5.92120815052065E+00
  1.77274257435538E+01  6.37055006086780E+00  5.52693976780592E+00
  1.50879974207982E+01  4.83721102608074E+00  4.46953567399586E+00
 Reduced coordinates (xred)
  5.00000000000000E-01  5.00000000000000E-01  5.00000000000000E-01
  4.69129042566888E-01  4.61158623311977E-01  6.81125967934605E-01
  4.67023998896757E-01  6.79758716927510E-01  4.61750073200295E-01
  8.97837080607505E-01  5.00000000000000E-01  5.00000000000000E-01
  9.46238256138761E-01  4.69300396610898E-01  3.20638713948861E-01
  9.18830250804840E-01  3.42790975709981E-01  6.26582873070968E-01
  9.33022407555463E-01  6.74132281573312E-01  5.84861351090574E-01
  7.94105127410429E-01  5.11874182654047E-01  4.72966737988980E-01
 Cartesian forces (fcart) [Ha/bohr]; max,rms= 5.23857E-05 2.09750E-05 (free atoms)
  7.90038120256225E-03  1.26699101819213E-04 -2.49298422883203E-04
  4.20602338997432E-06 -1.71786791383145E-06 -1.19299308541495E-06
  5.38000162277812E-06 -2.22150057761374E-06 -4.67527997363351E-07
 -7.85937354213111E-03 -1.23771162059039E-04  2.68303916387849E-04
 -1.57963129751900E-05 -5.23856633115730E-05 -1.86361403325843E-05
 -7.51289155050912E-06  7.94564683613793E-06  1.52214866596956E-05
  1.39268722841435E-05  1.60819440412121E-06  4.35747143587133E-06
 -4.12113532023394E-05  4.38432508025852E-05 -1.82877901848501E-05
 Reduced forces (fred)
 -1.50107242848683E-01 -1.19730651219156E-03  2.35587009624627E-03
 -7.99144444095122E-05  1.62338517857072E-05  1.12737846571713E-05
 -1.02220030832784E-04  2.09931804584499E-05  4.41813957508367E-06
  1.49328097300491E-01  1.16963748145792E-03 -2.53547200986517E-03
  3.00129946528610E-04  4.95044518294365E-04  1.76111526142922E-04
  1.42744939459673E-04 -7.50863626015034E-05 -1.43843048934124E-04
 -2.64610573398727E-04 -1.51974371189455E-05 -4.11781050689840E-05
  7.83015710844449E-04 -4.14318720084430E-04  1.72819617246834E-04
 Total energy (etotal) [Ha]= -2.94868609064039E+01

 Difference of energy with previous step (new-old):
           Absolute (Ha)=-2.04015E-08
           Relative     =-6.91884E-10

--- Iteration: (  7/500) Internal Cycle: (1/1)
--------------------------------------------------------------------------------

---SELF-CONSISTENT-FIELD CONVERGENCE--------------------------------------------

--- !BeginCycle
iteration_state: {dtset: 1, itime: 7, icycle: 1, }
solver: {iscf: 17, nstep: 50, nline: 4, wfoptalg: 114, }
tolerances: {toldff: 5.00E-07, }
...

     iter   Etot(hartree)      deltaE(h)  residm     nres2    diffor    maxfor
 ETOT  1  -29.486860917864    -2.949E+01 2.217E-13 7.917E-08 3.655E-05 4.701E-05
 ETOT  2  -29.486860917792     7.257E-11 2.644E-14 1.066E-08 2.749E-06 4.685E-05
 ETOT  3  -29.486860917792    -1.954E-13 9.056E-15 1.233E-09 7.278E-07 4.711E-05
 ETOT  4  -29.486860917801    -8.821E-12 2.222E-14 1.011E-10 1.691E-07 4.722E-05
 ETOT  5  -29.486860917806    -5.215E-12 2.018E-14 4.211E-11 7.891E-08 4.728E-05

 At SCF step    5, forces are converged : 
  for the second time, max diff in force=  7.891E-08 < toldff=  5.000E-07

 Cartesian components of stress tensor (hartree/bohr^3)
  sigma(1 1)=  9.91641598E-05  sigma(3 2)= -3.52371368E-07
  sigma(2 2)=  3.49797576E-06  sigma(3 1)= -1.27466186E-06
  sigma(3 3)=  4.72862078E-06  sigma(2 1)=  5.16026499E-07


--- !ResultsGS
iteration_state: {dtset: 1, itime: 7, icycle: 1, }
comment   : Summary of ground state results
lattice_vectors:
- [ 19.0000000,   0.0000000,   0.0000000, ]
- [  0.0000000,   9.4500000,   0.0000000, ]
- [  0.0000000,   0.0000000,   9.4500000, ]
lattice_lengths: [  19.00000,    9.45000,    9.45000, ]
lattice_angles: [ 90.000,  90.000,  90.000, ] # degrees, (23, 13, 12)
lattice_volume:   1.6967475E+03
convergence: {deltae: -5.215E-12, res2:  4.211E-11, residm:  2.018E-14, diffor:  7.891E-08, }
etotal    :  -2.94868609E+01
entropy   :   0.00000000E+00
fermie    :  -1.70549198E-01
cartesian_stress_tensor: # hartree/bohr^3
- [  9.91641598E-05,   5.16026499E-07,  -1.27466186E-06, ]
- [  5.16026499E-07,   3.49797576E-06,  -3.52371368E-07, ]
- [ -1.27466186E-06,  -3.52371368E-07,   4.72862078E-06, ]
pressure_GPa:  -1.0532E+00
xred      :
- [  5.0000E-01,   5.0000E-01,   5.0000E-01,  O]
- [  4.6913E-01,   4.6116E-01,   6.8113E-01,  H]
- [  4.6702E-01,   6.7976E-01,   4.6175E-01,  H]
- [  8.9784E-01,   5.0000E-01,   5.0000E-01,  N]
- [  9.4624E-01,   4.6929E-01,   3.2063E-01,  H]
- [  9.1882E-01,   3.4279E-01,   6.2659E-01,  H]
- [  9.3302E-01,   6.7414E-01,   5.8486E-01,  H]
- [  7.9410E-01,   5.1188E-01,   4.7297E-01,  H]
cartesian_forces: # hartree/bohr
- [  7.89922421E-03,   1.29003650E-04,  -2.47335498E-04, ]
- [  5.08648984E-06,  -2.82114958E-06,  -2.07503279E-06, ]
- [  6.27954660E-06,  -3.29773743E-06,  -1.54367941E-06, ]
- [ -7.88420670E-03,  -1.17476398E-04,   2.47895961E-04, ]
- [ -2.98649731E-05,  -4.72753454E-05,   1.53807046E-05, ]
- [ -3.82625341E-06,   1.73764002E-05,   7.61595512E-06, ]
- [  9.55728224E-06,  -1.89541500E-05,  -4.95449691E-06, ]
- [ -2.24960267E-06,   4.34447296E-05,  -1.49839134E-05, ]
force_length_stats: {min:   6.17551819E-06, max:   7.90414827E-03, mean:   1.99396482E-03, }
...

 Integrated electronic density in atomic spheres:
 ------------------------------------------------
 Atom  Sphere_radius  Integrated_density
    1        1.11262          3.31795707
    2        0.79977          0.35401278
    3        0.79977          0.34603037
    4        1.11029          2.30618488
    5        0.79977          0.33611707
    6        0.79977          0.32954180
    7        0.79977          0.33664802
    8        0.79977          0.31485449

 PAW TEST:
 ==== Compensation charge inside spheres ============
 The following values must be close to each other ...
 Compensation charge over spherical meshes =      1.217906544551603
 Compensation charge over fine fft grid    =      1.217921999507945

 ==== Results concerning PAW augmentation regions ====

 Total pseudopotential strength Dij (hartree):
 Atom #  1
   1.08410   1.72583  -0.00315  -0.00318   0.00246  -0.00473  -0.00479   0.00369
   1.72583   2.74685  -0.00479  -0.00484   0.00373  -0.00722  -0.00730   0.00562
  -0.00315  -0.00479  -0.40992   0.00323   0.00205  -0.44877   0.00432   0.00275
  -0.00318  -0.00484   0.00323  -0.41002   0.00188   0.00432  -0.44891   0.00252
   0.00246   0.00373   0.00205   0.00188  -0.40498   0.00275   0.00252  -0.44215
  -0.00473  -0.00722  -0.44877   0.00432   0.00275  -0.44567   0.00577   0.00366
  -0.00479  -0.00730   0.00432  -0.44891   0.00252   0.00577  -0.44585   0.00337
   0.00369   0.00562   0.00275   0.00252  -0.44215   0.00366   0.00337  -0.43684
 Atom #  8
  -0.04817


 Augmentation waves occupancies Rhoij:
 Atom #  1
   2.29621  -0.18601   0.14454   0.14657  -0.13159  -0.09195  -0.09315   0.07911
  -0.18601   0.03157  -0.09136  -0.09248   0.07563   0.00860   0.00874  -0.00907
   0.14454  -0.09136   1.10951  -0.11373  -0.07631  -0.07266   0.08120   0.05020
   0.14657  -0.09248  -0.11373   1.11323  -0.06976   0.08121  -0.07513   0.04589
  -0.13159   0.07563  -0.07631  -0.06976   0.89145   0.05012   0.04581   0.06015
  -0.09195   0.00860  -0.07266   0.08121   0.05012   0.01595  -0.00370   0.00111
  -0.09315   0.00874   0.08120  -0.07513   0.04581  -0.00370   0.01593   0.00125
   0.07911  -0.00907   0.05020   0.04589   0.06015   0.00111   0.00125   0.01219
 Atom #  8
   1.58484



---OUTPUT-----------------------------------------------------------------------

 Cartesian coordinates (xcart) [bohr]
  9.50000000000000E+00  4.72500000000000E+00  4.72500000000000E+00
  8.91345082448666E+00  4.35796634798224E+00  6.43664714988702E+00
  8.87345549085206E+00  6.42372790593264E+00  4.36355858492732E+00
  1.70589045315426E+01  4.72500000000000E+00  4.72500000000000E+00
  1.79784868447024E+01  4.43478157645852E+00  3.02993414057596E+00
  1.74576205909841E+01  3.23935584103773E+00  5.92127459426117E+00
  1.77274679050877E+01  6.37060951767640E+00  5.52690694838431E+00
  1.50878829808811E+01  4.83727156498277E+00  4.46954661348320E+00
 Reduced coordinates (xred)
  5.00000000000000E-01  5.00000000000000E-01  5.00000000000000E-01
  4.69128990762456E-01  4.61160460103941E-01  6.81126682527727E-01
  4.67023973202740E-01  6.79759566765358E-01  4.61752231209241E-01
  8.97837080607505E-01  5.00000000000000E-01  5.00000000000000E-01
  9.46236149721179E-01  4.69289055709896E-01  3.20627951383699E-01
  9.18822136367583E-01  3.42788977887590E-01  6.26589904154622E-01
  9.33024626583566E-01  6.74138573299090E-01  5.84857878135906E-01
  7.94099104256902E-01  5.11880588887066E-01  4.72967895606688E-01
 Cartesian forces (fcart) [Ha/bohr]; max,rms= 4.72753E-05 1.88871E-05 (free atoms)
  7.89922420578147E-03  1.29003650210413E-04 -2.47335498289130E-04
  5.08648983518605E-06 -2.82114957765162E-06 -2.07503279467828E-06
  6.27954659929692E-06 -3.29773742617402E-06 -1.54367941120732E-06
 -7.88420669528879E-03 -1.17476397570585E-04  2.47895961118012E-04
 -2.98649730773587E-05 -4.72753454082720E-05  1.53807045862731E-05
 -3.82625341306130E-06  1.73764001891212E-05  7.61595512020310E-06
  9.55728223635880E-06 -1.89541499804783E-05 -4.95449690706531E-06
 -2.24960267310308E-06  4.34447295636275E-05 -1.49839134224074E-05
 Reduced forces (fred)
 -1.50085259909848E-01 -1.21908449448840E-03  2.33732045883228E-03
 -9.66433068685350E-05  2.66598635088078E-05  1.96090599097097E-05
 -1.19311385386642E-04  3.11636186773444E-05  1.45877704359092E-05
  1.49799927210487E-01  1.11015195704203E-03 -2.34261683256522E-03
  5.67434488469816E-04  4.46752014108171E-04 -1.45347658340281E-04
  7.26988148481646E-05 -1.64206981787196E-04 -7.19707758859193E-05
 -1.81588362490817E-04  1.79116717315520E-04  4.68199957717671E-05
  4.27424507889585E-05 -4.10552694376280E-04  1.41597981841750E-04
 Total energy (etotal) [Ha]= -2.94868609178059E+01

 Difference of energy with previous step (new-old):
           Absolute (Ha)=-1.14020E-08
           Relative     =-3.86681E-10

 At Broyd/MD step   7, gradients are converged : 
  max grad (force/stress) = 4.7275E-05 < tolmxf= 5.0000E-05 ha/bohr (free atoms)

================================================================================

 ----iterations are completed or convergence reached----

 Mean square residual over all n,k,spin=   20.950E-16; max=  20.176E-15
 reduced coordinates (array xred) for    8 atoms
       0.500000000000      0.500000000000      0.500000000000
       0.469128990762      0.461160460104      0.681126682528
       0.467023973203      0.679759566765      0.461752231209
       0.897837080608      0.500000000000      0.500000000000
       0.946236149721      0.469289055710      0.320627951384
       0.918822136368      0.342788977888      0.626589904155
       0.933024626584      0.674138573299      0.584857878136
       0.794099104257      0.511880588887      0.472967895607
 rms dE/dt=  4.3292E-02; max dE/dt=  1.4970E-01; dE/dt below (all hartree)
    1      -0.150183164282     -0.001181826405      0.002401884090
    2      -0.000194547679      0.000063917953      0.000084172691
    3      -0.000217215757      0.000068421708      0.000079151401
    4       0.149702022839      0.001147410047     -0.002278053202
    5       0.000469530117      0.000484010104     -0.000080784028
    6      -0.000025205557     -0.000126948892     -0.000007407145
    7      -0.000279492734      0.000216374807      0.000111383626
    8      -0.000055161921     -0.000373294605      0.000206161613

 cartesian coordinates (angstrom) at end:
    1      5.02718348160500     2.50036231058775     2.50036231058775
    2      4.71679502620608     2.30613646715440     3.40612697145599
    3      4.69563040719670     3.39929040200312     2.30909575149077
    4      9.02718348160501     2.50036231058775     2.50036231058775
    5      9.51380548315165     2.34678533533668     1.60337209072153
    6      9.23817493296026     1.71419328159006     3.13340356108601
    7      9.38097198138315     3.37118136158088     2.92471319108268
    8      7.98416379935525     2.55977386394937     2.36518220058593

 cartesian forces (hartree/bohr) at end:
    1      0.00789922420578     0.00012900365021    -0.00024733549829
    2      0.00000508648984    -0.00000282114958    -0.00000207503279
    3      0.00000627954660    -0.00000329773743    -0.00000154367941
    4     -0.00788420669529    -0.00011747639757     0.00024789596112
    5     -0.00002986497308    -0.00004727534541     0.00001538070459
    6     -0.00000382625341     0.00001737640019     0.00000761595512
    7      0.00000955728224    -0.00001895414998    -0.00000495449691
    8     -0.00000224960267     0.00004344472956    -0.00001498391342
 frms,max,avg= 1.8887124E-05 4.7275345E-05   5.153E-06 -3.943E-06 -6.832E-06 h/b

 cartesian forces (eV/Angstrom) at end:
    1      0.40619440627925     0.00663363385315    -0.01271850162270
    2      0.00026155780173    -0.00014506933186    -0.00010670246749
    3      0.00032290724205    -0.00016957646232    -0.00007937918023
    4     -0.40542217490570    -0.00604087873947     0.01274732177771
    5     -0.00153571853282    -0.00243099579902     0.00079090756318
    6     -0.00019675384480     0.00089353034858     0.00039162812546
    7      0.00049145517110    -0.00097466149805    -0.00025477045304
    8     -0.00011567921081     0.00223401762899    -0.00077050374287
 frms,max,avg= 9.7121490E-04 2.4309958E-03   2.650E-04 -2.027E-04 -3.513E-04 e/A
 length scales= 19.000000000000  9.450000000000  9.450000000000 bohr
              = 10.054366963210  5.000724621175  5.000724621175 angstroms
 prteigrs : about to open file tstring_02_MPI1o_EIG
 Fermi (or HOMO) energy (hartree) =  -0.17055   Average Vxc (hartree)=  -0.10954
 Eigenvalues (hartree) for nkpt=   1  k points:
 kpt#   1, nband= 10, wtk=  1.00000, kpt=  0.0000  0.0000  0.0000 (reduced coord)
  -0.92533   -0.81795   -0.54095   -0.54032   -0.53181   -0.37489   -0.24133   -0.17055
  -0.08871    0.02259

 Calculation was performed for a charged system with PBC
 You may consider including the monopole correction to the total energy
 The correction is to be divided by the dielectric constant

--- !EnergyTerms
iteration_state     : {dtset: 1, itime: 7, icycle: 1, }
comment             : Components of total free energy in Hartree
kinetic             :  1.51192941655451E+01
hartree             :  2.23092737340149E+01
xc                  : -7.73326758051022E+00
Ewald energy        : -1.33273746874941E+00
psp_core            :  6.46659751152509E-02
local_psp           : -6.49879569217861E+01
spherical_terms     :  7.07386797378810E+00
total_energy        : -2.94868601225823E+01
total_energy_eV     : -8.02378269621715E+02
monopole_correction :  9.49609608068055E-02
monopole_correction_eV:  2.58401915622840E+00
...


--- !EnergyTermsDC
iteration_state     : {dtset: 1, itime: 7, icycle: 1, }
comment             : '"Double-counting" decomposition of free energy'
band_energy         : -8.28626001965107E+00
Ewald energy        : -1.33273746874941E+00
psp_core            :  6.46659751152509E-02
xc_dc               : -1.99164550260546E+01
spherical_terms     : -1.60743784660085E-02
total_energy_dc     : -2.94868609178059E+01
total_energy_dc_eV  : -8.02378291260848E+02
...

 rms coord change=  4.7665E-05   atom, delta coord (reduced):
     1        0.000000000000      0.000000000000      0.000000000000
     2       -0.000006427217      0.000042411785      0.000005628294
     3       -0.000006489394      0.000003725130      0.000045398801
     4        0.000000000000      0.000000000000      0.000000000000
     5       -0.000044465048      0.000006984456      0.000009913210
     6       -0.000137731226     -0.000021133355      0.000036655913
     7       -0.000000223406      0.000020237787     -0.000123617490
     8        0.000012230374     -0.000046179160      0.000098389716

 Cartesian components of stress tensor (hartree/bohr^3)
  sigma(1 1)=  9.91641598E-05  sigma(3 2)= -3.52371368E-07
  sigma(2 2)=  3.49797576E-06  sigma(3 1)= -1.27466186E-06
  sigma(3 3)=  4.72862078E-06  sigma(2 1)=  5.16026499E-07

-Cartesian components of stress tensor (GPa)         [Pressure= -1.0532E+00 GPa]
- sigma(1 1)=  2.91750982E+00  sigma(3 2)= -1.03671218E-02
- sigma(2 2)=  1.02913983E-01  sigma(3 1)= -3.75018402E-02
- sigma(3 3)=  1.39120803E-01  sigma(2 1)=  1.51820212E-02

== END DATASET(S) ==============================================================
================================================================================
  
 -outvars: echo values of variables after computation  --------
-          iomode           1
            acell      1.9000000000E+01  9.4500000000E+00  9.4500000000E+00 Bohr
              amu      1.59994000E+01  1.40067400E+01  1.00794000E+00
           bandpp          10
           charge      1.00000000E+00
     densfor_pred           6
             ecut      2.00000000E+01 Hartree
           etotal     -2.9486860918E+01
            fcart      7.8992242058E-03  1.2900365021E-04 -2.4733549829E-04
                       5.0864898352E-06 -2.8211495777E-06 -2.0750327947E-06
                       6.2795465993E-06 -3.2977374262E-06 -1.5436794112E-06
                      -7.8842066953E-03 -1.1747639757E-04  2.4789596112E-04
                      -2.9864973077E-05 -4.7275345408E-05  1.5380704586E-05
                      -3.8262534131E-06  1.7376400189E-05  7.6159551202E-06
                       9.5572822364E-06 -1.8954149980E-05 -4.9544969071E-06
                      -2.2496026731E-06  4.3444729564E-05 -1.4983913422E-05
-          fftalg         312
           iatfix        1    4
           ionmov           2
           istwfk        2
              ixc           2
           kptopt           0
P           mkmem           1
           natfix           2
            natom           8
            nband          10
            ngfft          80      40      40
          ngfftdg         120      54      54
             nkpt           1
            nstep          50
             nsym           1
            ntime         500
           ntypat           3
              occ      2.000000  2.000000  2.000000  2.000000  2.000000  2.000000
                       2.000000  2.000000  0.000000  0.000000
        optforces           1
        paral_kgb           1
        pawecutdg      4.00000000E+01 Hartree
          spgroup           1
           strten      9.9164159785E-05  3.4979757578E-06  4.7286207839E-06
                      -3.5237136751E-07 -1.2746618563E-06  5.1602649861E-07
           toldff      5.00000000E-07
            typat      1  3  3  2  3  3  3  3
           useylm           1
         wfoptalg         114
           xangst      5.0271834816E+00  2.5003623106E+00  2.5003623106E+00
                       4.7167950262E+00  2.3061364672E+00  3.4061269715E+00
                       4.6956304072E+00  3.3992904020E+00  2.3090957515E+00
                       9.0271834816E+00  2.5003623106E+00  2.5003623106E+00
                       9.5138054832E+00  2.3467853353E+00  1.6033720907E+00
                       9.2381749330E+00  1.7141932816E+00  3.1334035611E+00
                       9.3809719814E+00  3.3711813616E+00  2.9247131911E+00
                       7.9841637994E+00  2.5597738639E+00  2.3651822006E+00
            xcart      9.5000000000E+00  4.7250000000E+00  4.7250000000E+00
                       8.9134508245E+00  4.3579663480E+00  6.4366471499E+00
                       8.8734554909E+00  6.4237279059E+00  4.3635585849E+00
                       1.7058904532E+01  4.7250000000E+00  4.7250000000E+00
                       1.7978486845E+01  4.4347815765E+00  3.0299341406E+00
                       1.7457620591E+01  3.2393558410E+00  5.9212745943E+00
                       1.7727467905E+01  6.3706095177E+00  5.5269069484E+00
                       1.5087882981E+01  4.8372715650E+00  4.4695466135E+00
             xred      5.0000000000E-01  5.0000000000E-01  5.0000000000E-01
                       4.6912899076E-01  4.6116046010E-01  6.8112668253E-01
                       4.6702397320E-01  6.7975956677E-01  4.6175223121E-01
                       8.9783708061E-01  5.0000000000E-01  5.0000000000E-01
                       9.4623614972E-01  4.6928905571E-01  3.2062795138E-01
                       9.1882213637E-01  3.4278897789E-01  6.2658990415E-01
                       9.3302462658E-01  6.7413857330E-01  5.8485787814E-01
                       7.9409910426E-01  5.1188058889E-01  4.7296789561E-01
            znucl        8.00000    7.00000    1.00000

================================================================================


- Timing analysis has been suppressed with timopt=0



================================================================================

 Suggested references for the acknowledgment of ABINIT usage.

 The users of ABINIT have little formal obligations with respect to the ABINIT group
 (those specified in the GNU General Public License, http://www.gnu.org/copyleft/gpl.txt).
 However, it is common practice in the scientific literature,
 to acknowledge the efforts of people that have made the research possible.
 In this spirit, please find below suggested citations of work written by ABINIT developers,
 corresponding to implementations inside of ABINIT that you have used in the present run.
 Note also that it will be of great value to readers of publications presenting these results,
 to read papers enabling them to understand the theoretical formalism and details
 of the ABINIT implementation.
 For information on why they are suggested, see also https://docs.abinit.org/theory/acknowledgments.
-
- [1] Implementation of the Projector Augmented-Wave Method in the ABINIT code.
- M. Torrent, F. Jollet, F. Bottin, G. Zerah, and X. Gonze Comput. Mat. Science 42, 337, (2008).
- Comment: PAW calculations. Strong suggestion to cite this paper.
- DOI and bibtex: see https://docs.abinit.org/theory/bibliography/#torrent2008
-
- [2] Large scale ab initio calculations based on three levels of parallelization
- F. Bottin, S. Leroux, A. Knyazev, G. Zerah, Comput. Mat. Science 42, 329, (2008).
- Comment: in case LOBPCG algorithm is used (wfoptalg=4/14/114).
- Strong suggestion to cite this paper in your publications.
- This paper is also available at http://www.arxiv.org/abs/0707.3405
- DOI and bibtex: see https://docs.abinit.org/theory/bibliography/#bottin2008
-
- [3] The Abinit project: Impact, environment and recent developments.
- Computer Phys. Comm. 248, 107042 (2020).
- X.Gonze, B. Amadon, G. Antonius, F.Arnardi, L.Baguet, J.-M.Beuken,
- J.Bieder, F.Bottin, J.Bouchet, E.Bousquet, N.Brouwer, F.Bruneval,
- G.Brunin, T.Cavignac, J.-B. Charraud, Wei Chen, M.Cote, S.Cottenier,
- J.Denier, G.Geneste, Ph.Ghosez, M.Giantomassi, Y.Gillet, O.Gingras,
- D.R.Hamann, G.Hautier, Xu He, N.Helbig, N.Holzwarth, Y.Jia, F.Jollet,
- W.Lafargue-Dit-Hauret, K.Lejaeghere, M.A.L.Marques, A.Martin, C.Martins,
- H.P.C. Miranda, F.Naccarato, K. Persson, G.Petretto, V.Planes, Y.Pouillon,
- S.Prokhorenko, F.Ricci, G.-M.Rignanese, A.H.Romero, M.M.Schmitt, M.Torrent,
- M.J.van Setten, B.Van Troeye, M.J.Verstraete, G.Zerah and J.W.Zwanzig
- Comment: the fifth generic paper describing the ABINIT project.
- Note that a version of this paper, that is not formatted for Computer Phys. Comm. 
- is available at https://www.abinit.org/sites/default/files/ABINIT20.pdf .
- The licence allows the authors to put it on the Web.
- DOI and bibtex: see https://docs.abinit.org/theory/bibliography/#gonze2020
-
- [4] ABINIT: Overview, and focus on selected capabilities
- J. Chem. Phys. 152, 124102 (2020).
- A. Romero, D.C. Allan, B. Amadon, G. Antonius, T. Applencourt, L.Baguet,
- J.Bieder, F.Bottin, J.Bouchet, E.Bousquet, F.Bruneval,
- G.Brunin, D.Caliste, M.Cote,
- J.Denier, C. Dreyer, Ph.Ghosez, M.Giantomassi, Y.Gillet, O.Gingras,
- D.R.Hamann, G.Hautier, F.Jollet, G. Jomard,
- A.Martin, 
- H.P.C. Miranda, F.Naccarato, G.Petretto, N.A. Pike, V.Planes,
- S.Prokhorenko, T. Rangel, F.Ricci, G.-M.Rignanese, M.Royo, M.Stengel, M.Torrent,
- M.J.van Setten, B.Van Troeye, M.J.Verstraete, J.Wiktor, J.W.Zwanziger, and X.Gonze.
- Comment: a global overview of ABINIT, with focus on selected capabilities .
- Note that a version of this paper, that is not formatted for J. Chem. Phys 
- is available at https://www.abinit.org/sites/default/files/ABINIT20_JPC.pdf .
- The licence allows the authors to put it on the Web.
- DOI and bibtex: see https://docs.abinit.org/theory/bibliography/#romero2020
-
- [5] Recent developments in the ABINIT software package.
- Computer Phys. Comm. 205, 106 (2016).
- X.Gonze, F.Jollet, F.Abreu Araujo, D.Adams, B.Amadon, T.Applencourt,
- C.Audouze, J.-M.Beuken, J.Bieder, A.Bokhanchuk, E.Bousquet, F.Bruneval
- D.Caliste, M.Cote, F.Dahm, F.Da Pieve, M.Delaveau, M.Di Gennaro,
- B.Dorado, C.Espejo, G.Geneste, L.Genovese, A.Gerossier, M.Giantomassi,
- Y.Gillet, D.R.Hamann, L.He, G.Jomard, J.Laflamme Janssen, S.Le Roux,
- A.Levitt, A.Lherbier, F.Liu, I.Lukacevic, A.Martin, C.Martins,
- M.J.T.Oliveira, S.Ponce, Y.Pouillon, T.Rangel, G.-M.Rignanese,
- A.H.Romero, B.Rousseau, O.Rubel, A.A.Shukri, M.Stankovski, M.Torrent,
- M.J.Van Setten, B.Van Troeye, M.J.Verstraete, D.Waroquier, J.Wiktor,
- B.Xu, A.Zhou, J.W.Zwanziger.
- Comment: the fourth generic paper describing the ABINIT project.
- Note that a version of this paper, that is not formatted for Computer Phys. Comm. 
- is available at https://www.abinit.org/sites/default/files/ABINIT16.pdf .
- The licence allows the authors to put it on the Web.
- DOI and bibtex: see https://docs.abinit.org/theory/bibliography/#gonze2016
-
- Proc.   0 individual time (sec): cpu=         24.8  wall=         24.9

================================================================================

 Calculation completed.
.Delivered  27 WARNINGs and   3 COMMENTs to log file.
+Overall time at end (sec) : cpu=         24.8  wall=         24.9
