# YAML support is available, but is disabled for this test.
# Start legacy fldiff comparison report
2
< .Version 9.3.1 of ABINIT 
> .Version 9.9.0 of ABINIT 
3
< .(MPI version, prepared for a x86_64_linux_gnu9.3 computer) 
> .(MPI version, prepared for a x86_64_linux_gnu11.3 computer) 
17
< .Starting date : Tue 10 Nov 2020.
> .Starting date : Thu 17 Nov 2022.
233
<  ETOT  3  -12.368117167542    -1.673E-04 3.651E-04 1.537E-04 1.359E-03 2.442E-03
>  ETOT  3  -12.368117167543    -1.673E-04 3.651E-04 1.536E-04 1.359E-03 2.442E-03
1007
<  pressure_GPa:   9.2000E-03
>  pressure_GPa:   9.2001E-03
1352
< .Delivered   8 WARNINGs and   3 COMMENTs to log file.
> .Delivered   9 WARNINGs and   3 COMMENTs to log file.
1353
< +Overall time at end (sec) : cpu=          2.7  wall=          2.9
> +Overall time at end (sec) : cpu=          0.9  wall=          1.4
Summary t44.abo: different lines=2, max abs_diff=1.000e-07 (l.233), max rel_diff=3.254e-04 (l.233).
