Ga    ONCVPSP-3.3.0  r_core=   1.66857   1.75011   1.90252
31.0000     13.0000      180423    zatom,zion,pspd
8      11   2     4   600     0    pspcod,pspxc,lmax,lloc,mmax,r2well
5.99000000  5.00000000  0.00000000    rchrg fchrg qchrg
2     3     2     0    nproj
3     1           extension_switch
4     3     0    nprojso
0                         1.1467245795945D+00  7.0330089711792D+00
1  0.0000000000000D+00 -3.1253130083897D-09  1.6624242624858D-09
2  1.0000000000000D-02  4.6252200774882D-02 -1.5703968083854D-03
3  2.0000000000000D-02  9.1923681948576D-02 -2.8316277225936D-03
4  3.0000000000000D-02  1.3644050054791D-01 -3.4781663383632D-03
5  4.0000000000000D-02  1.7924219203550D-01 -3.2117253132184D-03
6  5.0000000000000D-02  2.1978832327923D-01 -1.7447765289500D-03
7  6.0000000000000D-02  2.5756482426147D-01  1.1960467976794D-03
8  7.0000000000000D-02  2.9209002847932D-01  5.8667034360496D-03
9  8.0000000000000D-02  3.2292035511229D-01  1.2502688612238D-02
10  9.0000000000000D-02  3.4965556987901D-01  2.1316203301325D-02
11  1.0000000000000D-01  3.7194356602853D-01  3.2493579607183D-02
12  1.1000000000000D-01  3.8948461206736D-01  4.6192990752790D-02
13  1.2000000000000D-01  4.0203501855688D-01  6.2542471153865D-02
14  1.3000000000000D-01  4.0941018256661D-01  8.1638268723158D-02
15  1.4000000000000D-01  4.1148697507082D-01  1.0354354798653D-01
16  1.5000000000000D-01  4.0820544365977D-01  1.2828745882297D-01
17  1.6000000000000D-01  3.9956981032692D-01  1.5586458170786D-01
18  1.7000000000000D-01  3.8564875171190D-01  1.8623475628456D-01
19  1.8000000000000D-01  3.6657495694601D-01  2.1932329595498D-01
20  1.9000000000000D-01  3.4254396607986D-01  2.5502158701075D-01
21  2.0000000000000D-01  3.1381229988872D-01  2.9318806666493D-01
22  2.1000000000000D-01  2.8069489956707D-01  3.3364957023588D-01
23  2.2000000000000D-01  2.4356190235826D-01  3.7620303372205D-01
24  2.3000000000000D-01  2.0283478643685D-01  4.2061753413273D-01
25  2.4000000000000D-01  1.5898192529317D-01  4.6663664624617D-01
26  2.5000000000000D-01  1.1251359838742D-01  5.1398109099212D-01
27  2.6000000000000D-01  6.3976510873260D-02  5.6235164743899D-01
28  2.7000000000000D-01  1.3947880674591D-02  6.1143229744009D-01
29  2.8000000000000D-01 -3.6970843927435D-02  6.6089356939165D-01
30  2.9000000000000D-01 -8.8160568828857D-02  7.1039604530473D-01
31  3.0000000000000D-01 -1.3899136988934D-01  7.5959399351980D-01
32  3.1000000000000D-01 -1.8882946634816D-01  8.0813908791679D-01
33  3.2000000000000D-01 -2.3704427627523D-01  8.5568417341152D-01
34  3.3000000000000D-01 -2.8301547729373D-01  9.0188703689532D-01
35  3.4000000000000D-01 -3.2613999546108D-01  9.4641414257423D-01
36  3.5000000000000D-01 -3.6583884566992D-01  9.8894429090355D-01
37  3.6000000000000D-01 -4.0156374822955D-01  1.0291721609895D+00
38  3.7000000000000D-01 -4.3280344839781D-01  1.0668116974377D+00
39  3.8000000000000D-01 -4.5908966853676D-01  1.1015993041571D+00
40  3.9000000000000D-01 -4.8000262623284D-01  1.1332968095655D+00
41  4.0000000000000D-01 -4.9517605611856D-01  1.1616941699644D+00
42  4.1000000000000D-01 -5.0430167821339D-01  1.1866118805412D+00
43  4.2000000000000D-01 -5.0713306131577D-01  1.2079030664810D+00
44  4.3000000000000D-01 -5.0348883626779D-01  1.2254552300026D+00
45  4.4000000000000D-01 -4.9325522071421D-01  1.2391916327367D+00
46  4.5000000000000D-01 -4.7638782421743D-01  1.2490722967057D+00
47  4.6000000000000D-01 -4.5291271019730D-01  1.2550946111961D+00
48  4.7000000000000D-01 -4.2292669905469D-01  1.2572935370038D+00
49  4.8000000000000D-01 -3.8659690493540D-01  1.2557414038300D+00
50  4.9000000000000D-01 -3.4415950680165D-01  1.2505473009655D+00
51  5.0000000000000D-01 -2.9591776272544D-01  1.2418560657798D+00
52  5.1000000000000D-01 -2.4223928450402D-01  1.2298468788836D+00
53  5.2000000000000D-01 -1.8355259774533D-01  1.2147314791089D+00
54  5.3000000000000D-01 -1.2034302037922D-01  1.1967520156020D+00
55  5.4000000000000D-01 -5.3147900058347D-02  1.1761785583209D+00
56  5.5000000000000D-01  1.7448741990187D-02  1.1533062920031D+00
57  5.6000000000000D-01  9.0822106470104D-02  1.1284524222034D+00
58  5.7000000000000D-01  1.6631299059523D-01  1.1019528252437D+00
59  5.8000000000000D-01  2.4323457600261D-01  1.0741584768309D+00
60  5.9000000000000D-01  3.2087955944856D-01  1.0454316966639D+00
61  6.0000000000000D-01  3.9852755168798D-01  1.0161422485178D+00
62  6.1000000000000D-01  4.7545266663569D-01  9.8666333706233D-01
63  6.2000000000000D-01  5.5093122044635D-01  9.5736754399476D-01
64  6.3000000000000D-01  6.2424945851808D-01  9.2862274695324D-01
65  6.4000000000000D-01  6.9471122767217D-01  9.0078806509419D-01
66  6.5000000000000D-01  7.6164551088025D-01  8.7420987517322D-01
67  6.6000000000000D-01  8.2441374292241D-01  8.4921794145158D-01
68  6.7000000000000D-01  8.8241682724915D-01  8.2612170176671D-01
69  6.8000000000000D-01  9.3510177705659D-01  8.0520675067231D-01
70  6.9000000000000D-01  9.8196790718664D-01  7.8673155866065D-01
71  7.0000000000000D-01  1.0225725078459D+00  7.7092446417267D-01
72  7.1000000000000D-01  1.0565359363029D+00  7.5798097237811D-01
73  7.2000000000000D-01  1.0835460685603D+00  7.4806139162652D-01
74  7.3000000000000D-01  1.1033620595497D+00  7.4128883501086D-01
75  7.4000000000000D-01  1.1158173674766D+00  7.3774761074166D-01
76  7.5000000000000D-01  1.1208220055670D+00  7.3748202099881D-01
77  7.6000000000000D-01  1.1183639925146D+00  7.4049558466946D-01
78  7.7000000000000D-01  1.1085099813416D+00  7.4675069492579D-01
79  7.8000000000000D-01  1.0914050550269D+00  7.5616871802063D-01
80  7.9000000000000D-01  1.0672716861190D+00  7.6863053498281D-01
81  8.0000000000000D-01  1.0364078664579D+00  7.8397752317276D-01
82  8.1000000000000D-01  9.9918442202717D-01  8.0201296994165D-01
83  8.2000000000000D-01  9.5604153674929D-01  8.2250390597305D-01
84  8.3000000000000D-01  9.0748451762101D-01  8.4518334133155D-01
85  8.4000000000000D-01  8.5407884186656D-01  8.6975288284491D-01
86  8.5000000000000D-01  7.9644453468258D-01  8.9588570725262D-01
87  8.6000000000000D-01  7.3524993356559D-01  9.2322986061086D-01
88  8.7000000000000D-01  6.7120490207335D-01  9.5141185079468D-01
89  8.8000000000000D-01  6.0505356209670D-01  9.8004049662433D-01
90  8.9000000000000D-01  5.3756661923935D-01  1.0087109942000D+00
91  9.0000000000000D-01  4.6953336065629D-01  1.0370091584926D+00
92  9.1000000000000D-01  4.0175340863205D-01  1.0645157961365D+00
93  9.2000000000000D-01  3.3502831624124D-01  1.0908111637265D+00
94  9.3000000000000D-01  2.7015309358844D-01  1.1154794647593D+00
95  9.4000000000000D-01  2.0790775434850D-01  1.1381133376905D+00
96  9.5000000000000D-01  1.4904897257230D-01  1.1583182874212D+00
97  9.6000000000000D-01  9.4301939076454D-02  1.1757170128558D+00
98  9.7000000000000D-01  4.4352505034578D-02  1.1899535840436D+00
99  9.8000000000000D-01 -1.6030218235260D-04  1.2006974237591D+00
100  9.9000000000000D-01 -3.8651309397224D-02  1.2076470502233D+00
101  1.0000000000000D+00 -7.0595697139963D-02  1.2105335399787D+00
102  1.0100000000000D+00 -9.5534896408830D-02  1.2091236726877D+00
103  1.0200000000000D+00 -1.1308181696166D-01  1.2032227228606D+00
104  1.0300000000000D+00 -1.2292534805214D-01  1.1926768670175D+00
105  1.0400000000000D+00 -1.2483407999210D-01  1.1773751787221D+00
106  1.0500000000000D+00 -1.1865920315345D-01  1.1572511882728D+00
107  1.0600000000000D+00 -1.0433654933775D-01  1.1322839882238D+00
108  1.0700000000000D+00 -8.1887749516497D-02  1.1024988707035D+00
109  1.0800000000000D+00 -5.1420491491418D-02  1.0679674875436D+00
110  1.0900000000000D+00 -1.3127869532514D-02  1.0288075287289D+00
111  1.1000000000000D+00  3.2713170855836D-02  9.8518192054673D-01
112  1.1100000000000D+00  8.5744281432718D-02  9.3729754929022D-01
113  1.1200000000000D+00  1.4552903080807D-01  8.8540352196272D-01
114  1.1300000000000D+00  2.1155706497629D-01  8.2978897965295D-01
115  1.1400000000000D+00  2.8324906814502D-01  7.7078048481619D-01
116  1.1500000000000D+00  3.5996247516013D-01  7.0873900796518D-01
117  1.1600000000000D+00  4.4099787807269D-01  6.4405654391907D-01
118  1.1700000000000D+00  5.2560606329848D-01  5.7715239099378D-01
119  1.1800000000000D+00  6.1299560680160D-01  5.0846913130780D-01
120  1.1900000000000D+00  7.0234094951968D-01  4.3846835315209D-01
121  1.2000000000000D+00  7.9279086964506D-01  3.6762615935869D-01
122  1.2100000000000D+00  8.8347726456437D-01  2.9642850763157D-01
123  1.2200000000000D+00  9.7352414971900D-01  2.2536643176763D-01
124  1.2300000000000D+00  1.0620567807401D+00  1.5493119319716D-01
125  1.2400000000000D+00  1.1482108030479D+00  8.5609413432038D-02
126  1.2500000000000D+00  1.2311413314512D+00  1.7878238923712D-02
127  1.2600000000000D+00  1.3100318643661D+00 -4.7799411242805D-02
128  1.2700000000000D+00  1.3841029371821D+00 -1.1097946433223D-01
129  1.2800000000000D+00  1.4526204214839D+00 -1.7124113024529D-01
130  1.2900000000000D+00  1.5149033830709D+00 -2.2819110899918D-01
131  1.3000000000000D+00  1.5703314118556D+00 -2.8146752335995D-01
132  1.3100000000000D+00  1.6183513436827D+00 -3.3074353422302D-01
133  1.3200000000000D+00  1.6584833049464D+00 -3.7573060203331D-01
134  1.3300000000000D+00  1.6903260074112D+00 -4.1618135570839D-01
135  1.3400000000000D+00  1.7135612371808D+00 -4.5189203921410D-01
136  1.3500000000000D+00  1.7279574927119D+00 -4.8270451171636D-01
137  1.3600000000000D+00  1.7333727176042D+00 -5.0850777239878D-01
138  1.3700000000000D+00  1.7297561089529D+00 -5.2923899949225D-01
139  1.3800000000000D+00  1.7171489735555D+00 -5.4488408859960D-01
140  1.3900000000000D+00  1.6956846132895D+00 -5.5547768013920D-01
141  1.4000000000000D+00  1.6655872527836D+00 -5.6110268250820D-01
142  1.4100000000000D+00  1.6271699987338D+00 -5.6188928502915D-01
143  1.4200000000000D+00  1.5808318621144D+00 -5.5801347683829D-01
144  1.4300000000000D+00  1.5270538698325D+00 -5.4969508540485D-01
145  1.4400000000000D+00  1.4663942915514D+00 -5.3719534792396D-01
146  1.4500000000000D+00  1.3994830504006D+00 -5.2081405153486D-01
147  1.4600000000000D+00  1.3270153483934D+00 -5.0088625829713D-01
148  1.4700000000000D+00  1.2497445916448D+00 -4.7777865952844D-01
149  1.4800000000000D+00  1.1684746753379D+00 -4.5188559083169D-01
150  1.4900000000000D+00  1.0840517078614D+00 -4.2362474941487D-01
151  1.5000000000000D+00  9.9735526700679D-01 -3.9343266246765D-01
152  1.5100000000000D+00  9.0928926351523D-01 -3.6175994600010D-01
153  1.5200000000000D+00  8.2077252201588D-01 -3.2906641201467D-01
154  1.5300000000000D+00  7.3272916192370D-01 -2.9581606726781D-01
155  1.5400000000000D+00  6.4607888846605D-01 -2.6247206158156D-01
156  1.5500000000000D+00  5.6172728616204D-01 -2.2949163416526D-01
157  1.5600000000000D+00  4.8055621956509D-01 -1.9732111388661D-01
158  1.5700000000000D+00  4.0341444750532D-01 -1.6639102402029D-01
159  1.5800000000000D+00  3.3110850131140D-01 -1.3711133823535D-01
160  1.5900000000000D+00  2.6439408147527D-01 -1.0986696196498D-01
161  1.6000000000000D+00  2.0396777694663D-01 -8.5013437839113D-02
162  1.6100000000000D+00  1.5045964425065D-01 -6.2873112836194D-02
163  1.6200000000000D+00  1.0446268378356D-01 -4.3746636312273D-02
164  1.6300000000000D+00  6.6316881567722D-02 -2.7821403129363D-02
165  1.6400000000000D+00  3.6364952525102D-02 -1.5278239266152D-02
166  1.6500000000000D+00  1.5626390056746D-02 -6.5748447919337D-03
167  1.6600000000000D+00  4.1503646307776D-03 -1.7519084389349D-03
168  1.6700000000000D+00 -3.4490565012541D-04  1.4047019048205D-04
169  1.6800000000000D+00 -7.7111149347660D-04  3.2269088914504D-04
170  1.6900000000000D+00  7.7511593709571D-05 -3.2464878294781D-05
171  1.7000000000000D+00  2.6255081430778D-04 -1.1006698472070D-04
172  1.7100000000000D+00 -1.0413766277911D-05  4.3513778995330D-06
173  1.7200000000000D+00 -4.9242192890629D-05  2.0584403602667D-05
174  1.7300000000000D+00  6.5349868517446D-09 -1.1037105693146D-09
175  1.7400000000000D+00  5.6091961992684D-08 -9.4735142869327D-09
176  1.7500000000000D+00  9.2289942153706D-10 -1.5587083326616D-10
177  1.7600000000000D+00  0.0000000000000D+00  0.0000000000000D+00
178  1.7700000000000D+00  0.0000000000000D+00  0.0000000000000D+00
179  1.7800000000000D+00  0.0000000000000D+00  0.0000000000000D+00
180  1.7900000000000D+00  0.0000000000000D+00  0.0000000000000D+00
181  1.8000000000000D+00  0.0000000000000D+00  0.0000000000000D+00
182  1.8100000000000D+00  0.0000000000000D+00  0.0000000000000D+00
183  1.8200000000000D+00  0.0000000000000D+00  0.0000000000000D+00
184  1.8300000000000D+00  0.0000000000000D+00  0.0000000000000D+00
185  1.8400000000000D+00  0.0000000000000D+00  0.0000000000000D+00
186  1.8500000000000D+00  0.0000000000000D+00  0.0000000000000D+00
187  1.8600000000000D+00  0.0000000000000D+00  0.0000000000000D+00
188  1.8700000000000D+00  0.0000000000000D+00  0.0000000000000D+00
189  1.8800000000000D+00  0.0000000000000D+00  0.0000000000000D+00
190  1.8900000000000D+00  0.0000000000000D+00  0.0000000000000D+00
191  1.9000000000000D+00  0.0000000000000D+00  0.0000000000000D+00
192  1.9100000000000D+00  0.0000000000000D+00  0.0000000000000D+00
193  1.9200000000000D+00  0.0000000000000D+00  0.0000000000000D+00
194  1.9300000000000D+00  0.0000000000000D+00  0.0000000000000D+00
195  1.9400000000000D+00  0.0000000000000D+00  0.0000000000000D+00
196  1.9500000000000D+00  0.0000000000000D+00  0.0000000000000D+00
197  1.9600000000000D+00  0.0000000000000D+00  0.0000000000000D+00
198  1.9700000000000D+00  0.0000000000000D+00  0.0000000000000D+00
199  1.9800000000000D+00  0.0000000000000D+00  0.0000000000000D+00
200  1.9900000000000D+00  0.0000000000000D+00  0.0000000000000D+00
201  2.0000000000000D+00  0.0000000000000D+00  0.0000000000000D+00
202  2.0100000000000D+00  0.0000000000000D+00  0.0000000000000D+00
203  2.0200000000000D+00  0.0000000000000D+00  0.0000000000000D+00
204  2.0300000000000D+00  0.0000000000000D+00  0.0000000000000D+00
205  2.0400000000000D+00  0.0000000000000D+00  0.0000000000000D+00
206  2.0500000000000D+00  0.0000000000000D+00  0.0000000000000D+00
207  2.0600000000000D+00  0.0000000000000D+00  0.0000000000000D+00
208  2.0700000000000D+00  0.0000000000000D+00  0.0000000000000D+00
209  2.0800000000000D+00  0.0000000000000D+00  0.0000000000000D+00
210  2.0900000000000D+00  0.0000000000000D+00  0.0000000000000D+00
211  2.1000000000000D+00  0.0000000000000D+00  0.0000000000000D+00
212  2.1100000000000D+00  0.0000000000000D+00  0.0000000000000D+00
213  2.1200000000000D+00  0.0000000000000D+00  0.0000000000000D+00
214  2.1300000000000D+00  0.0000000000000D+00  0.0000000000000D+00
215  2.1400000000000D+00  0.0000000000000D+00  0.0000000000000D+00
216  2.1500000000000D+00  0.0000000000000D+00  0.0000000000000D+00
217  2.1600000000000D+00  0.0000000000000D+00  0.0000000000000D+00
218  2.1700000000000D+00  0.0000000000000D+00  0.0000000000000D+00
219  2.1800000000000D+00  0.0000000000000D+00  0.0000000000000D+00
220  2.1900000000000D+00  0.0000000000000D+00  0.0000000000000D+00
221  2.2000000000000D+00  0.0000000000000D+00  0.0000000000000D+00
222  2.2100000000000D+00  0.0000000000000D+00  0.0000000000000D+00
223  2.2200000000000D+00  0.0000000000000D+00  0.0000000000000D+00
224  2.2300000000000D+00  0.0000000000000D+00  0.0000000000000D+00
225  2.2400000000000D+00  0.0000000000000D+00  0.0000000000000D+00
226  2.2500000000000D+00  0.0000000000000D+00  0.0000000000000D+00
227  2.2600000000000D+00  0.0000000000000D+00  0.0000000000000D+00
228  2.2700000000000D+00  0.0000000000000D+00  0.0000000000000D+00
229  2.2800000000000D+00  0.0000000000000D+00  0.0000000000000D+00
230  2.2900000000000D+00  0.0000000000000D+00  0.0000000000000D+00
231  2.3000000000000D+00  0.0000000000000D+00  0.0000000000000D+00
232  2.3100000000000D+00  0.0000000000000D+00  0.0000000000000D+00
233  2.3200000000000D+00  0.0000000000000D+00  0.0000000000000D+00
234  2.3300000000000D+00  0.0000000000000D+00  0.0000000000000D+00
235  2.3400000000000D+00  0.0000000000000D+00  0.0000000000000D+00
236  2.3500000000000D+00  0.0000000000000D+00  0.0000000000000D+00
237  2.3600000000000D+00  0.0000000000000D+00  0.0000000000000D+00
238  2.3700000000000D+00  0.0000000000000D+00  0.0000000000000D+00
239  2.3800000000000D+00  0.0000000000000D+00  0.0000000000000D+00
240  2.3900000000000D+00  0.0000000000000D+00  0.0000000000000D+00
241  2.4000000000000D+00  0.0000000000000D+00  0.0000000000000D+00
242  2.4100000000000D+00  0.0000000000000D+00  0.0000000000000D+00
243  2.4200000000000D+00  0.0000000000000D+00  0.0000000000000D+00
244  2.4300000000000D+00  0.0000000000000D+00  0.0000000000000D+00
245  2.4400000000000D+00  0.0000000000000D+00  0.0000000000000D+00
246  2.4500000000000D+00  0.0000000000000D+00  0.0000000000000D+00
247  2.4600000000000D+00  0.0000000000000D+00  0.0000000000000D+00
248  2.4700000000000D+00  0.0000000000000D+00  0.0000000000000D+00
249  2.4800000000000D+00  0.0000000000000D+00  0.0000000000000D+00
250  2.4900000000000D+00  0.0000000000000D+00  0.0000000000000D+00
251  2.5000000000000D+00  0.0000000000000D+00  0.0000000000000D+00
252  2.5100000000000D+00  0.0000000000000D+00  0.0000000000000D+00
253  2.5200000000000D+00  0.0000000000000D+00  0.0000000000000D+00
254  2.5300000000000D+00  0.0000000000000D+00  0.0000000000000D+00
255  2.5400000000000D+00  0.0000000000000D+00  0.0000000000000D+00
256  2.5500000000000D+00  0.0000000000000D+00  0.0000000000000D+00
257  2.5600000000000D+00  0.0000000000000D+00  0.0000000000000D+00
258  2.5700000000000D+00  0.0000000000000D+00  0.0000000000000D+00
259  2.5800000000000D+00  0.0000000000000D+00  0.0000000000000D+00
260  2.5900000000000D+00  0.0000000000000D+00  0.0000000000000D+00
261  2.6000000000000D+00  0.0000000000000D+00  0.0000000000000D+00
262  2.6100000000000D+00  0.0000000000000D+00  0.0000000000000D+00
263  2.6200000000000D+00  0.0000000000000D+00  0.0000000000000D+00
264  2.6300000000000D+00  0.0000000000000D+00  0.0000000000000D+00
265  2.6400000000000D+00  0.0000000000000D+00  0.0000000000000D+00
266  2.6500000000000D+00  0.0000000000000D+00  0.0000000000000D+00
267  2.6600000000000D+00  0.0000000000000D+00  0.0000000000000D+00
268  2.6700000000000D+00  0.0000000000000D+00  0.0000000000000D+00
269  2.6800000000000D+00  0.0000000000000D+00  0.0000000000000D+00
270  2.6900000000000D+00  0.0000000000000D+00  0.0000000000000D+00
271  2.7000000000000D+00  0.0000000000000D+00  0.0000000000000D+00
272  2.7100000000000D+00  0.0000000000000D+00  0.0000000000000D+00
273  2.7200000000000D+00  0.0000000000000D+00  0.0000000000000D+00
274  2.7300000000000D+00  0.0000000000000D+00  0.0000000000000D+00
275  2.7400000000000D+00  0.0000000000000D+00  0.0000000000000D+00
276  2.7500000000000D+00  0.0000000000000D+00  0.0000000000000D+00
277  2.7600000000000D+00  0.0000000000000D+00  0.0000000000000D+00
278  2.7700000000000D+00  0.0000000000000D+00  0.0000000000000D+00
279  2.7800000000000D+00  0.0000000000000D+00  0.0000000000000D+00
280  2.7900000000000D+00  0.0000000000000D+00  0.0000000000000D+00
281  2.8000000000000D+00  0.0000000000000D+00  0.0000000000000D+00
282  2.8100000000000D+00  0.0000000000000D+00  0.0000000000000D+00
283  2.8200000000000D+00  0.0000000000000D+00  0.0000000000000D+00
284  2.8300000000000D+00  0.0000000000000D+00  0.0000000000000D+00
285  2.8400000000000D+00  0.0000000000000D+00  0.0000000000000D+00
286  2.8500000000000D+00  0.0000000000000D+00  0.0000000000000D+00
287  2.8600000000000D+00  0.0000000000000D+00  0.0000000000000D+00
288  2.8700000000000D+00  0.0000000000000D+00  0.0000000000000D+00
289  2.8800000000000D+00  0.0000000000000D+00  0.0000000000000D+00
290  2.8900000000000D+00  0.0000000000000D+00  0.0000000000000D+00
291  2.9000000000000D+00  0.0000000000000D+00  0.0000000000000D+00
292  2.9100000000000D+00  0.0000000000000D+00  0.0000000000000D+00
293  2.9200000000000D+00  0.0000000000000D+00  0.0000000000000D+00
294  2.9300000000000D+00  0.0000000000000D+00  0.0000000000000D+00
295  2.9400000000000D+00  0.0000000000000D+00  0.0000000000000D+00
296  2.9500000000000D+00  0.0000000000000D+00  0.0000000000000D+00
297  2.9600000000000D+00  0.0000000000000D+00  0.0000000000000D+00
298  2.9700000000000D+00  0.0000000000000D+00  0.0000000000000D+00
299  2.9800000000000D+00  0.0000000000000D+00  0.0000000000000D+00
300  2.9900000000000D+00  0.0000000000000D+00  0.0000000000000D+00
301  3.0000000000000D+00  0.0000000000000D+00  0.0000000000000D+00
302  3.0100000000000D+00  0.0000000000000D+00  0.0000000000000D+00
303  3.0200000000000D+00  0.0000000000000D+00  0.0000000000000D+00
304  3.0300000000000D+00  0.0000000000000D+00  0.0000000000000D+00
305  3.0400000000000D+00  0.0000000000000D+00  0.0000000000000D+00
306  3.0500000000000D+00  0.0000000000000D+00  0.0000000000000D+00
307  3.0600000000000D+00  0.0000000000000D+00  0.0000000000000D+00
308  3.0700000000000D+00  0.0000000000000D+00  0.0000000000000D+00
309  3.0800000000000D+00  0.0000000000000D+00  0.0000000000000D+00
310  3.0900000000000D+00  0.0000000000000D+00  0.0000000000000D+00
311  3.1000000000000D+00  0.0000000000000D+00  0.0000000000000D+00
312  3.1100000000000D+00  0.0000000000000D+00  0.0000000000000D+00
313  3.1200000000000D+00  0.0000000000000D+00  0.0000000000000D+00
314  3.1300000000000D+00  0.0000000000000D+00  0.0000000000000D+00
315  3.1400000000000D+00  0.0000000000000D+00  0.0000000000000D+00
316  3.1500000000000D+00  0.0000000000000D+00  0.0000000000000D+00
317  3.1600000000000D+00  0.0000000000000D+00  0.0000000000000D+00
318  3.1700000000000D+00  0.0000000000000D+00  0.0000000000000D+00
319  3.1800000000000D+00  0.0000000000000D+00  0.0000000000000D+00
320  3.1900000000000D+00  0.0000000000000D+00  0.0000000000000D+00
321  3.2000000000000D+00  0.0000000000000D+00  0.0000000000000D+00
322  3.2100000000000D+00  0.0000000000000D+00  0.0000000000000D+00
323  3.2200000000000D+00  0.0000000000000D+00  0.0000000000000D+00
324  3.2300000000000D+00  0.0000000000000D+00  0.0000000000000D+00
325  3.2400000000000D+00  0.0000000000000D+00  0.0000000000000D+00
326  3.2500000000000D+00  0.0000000000000D+00  0.0000000000000D+00
327  3.2600000000000D+00  0.0000000000000D+00  0.0000000000000D+00
328  3.2700000000000D+00  0.0000000000000D+00  0.0000000000000D+00
329  3.2800000000000D+00  0.0000000000000D+00  0.0000000000000D+00
330  3.2900000000000D+00  0.0000000000000D+00  0.0000000000000D+00
331  3.3000000000000D+00  0.0000000000000D+00  0.0000000000000D+00
332  3.3100000000000D+00  0.0000000000000D+00  0.0000000000000D+00
333  3.3200000000000D+00  0.0000000000000D+00  0.0000000000000D+00
334  3.3300000000000D+00  0.0000000000000D+00  0.0000000000000D+00
335  3.3400000000000D+00  0.0000000000000D+00  0.0000000000000D+00
336  3.3500000000000D+00  0.0000000000000D+00  0.0000000000000D+00
337  3.3600000000000D+00  0.0000000000000D+00  0.0000000000000D+00
338  3.3700000000000D+00  0.0000000000000D+00  0.0000000000000D+00
339  3.3800000000000D+00  0.0000000000000D+00  0.0000000000000D+00
340  3.3900000000000D+00  0.0000000000000D+00  0.0000000000000D+00
341  3.4000000000000D+00  0.0000000000000D+00  0.0000000000000D+00
342  3.4100000000000D+00  0.0000000000000D+00  0.0000000000000D+00
343  3.4200000000000D+00  0.0000000000000D+00  0.0000000000000D+00
344  3.4300000000000D+00  0.0000000000000D+00  0.0000000000000D+00
345  3.4400000000000D+00  0.0000000000000D+00  0.0000000000000D+00
346  3.4500000000000D+00  0.0000000000000D+00  0.0000000000000D+00
347  3.4600000000000D+00  0.0000000000000D+00  0.0000000000000D+00
348  3.4700000000000D+00  0.0000000000000D+00  0.0000000000000D+00
349  3.4800000000000D+00  0.0000000000000D+00  0.0000000000000D+00
350  3.4900000000000D+00  0.0000000000000D+00  0.0000000000000D+00
351  3.5000000000000D+00  0.0000000000000D+00  0.0000000000000D+00
352  3.5100000000000D+00  0.0000000000000D+00  0.0000000000000D+00
353  3.5200000000000D+00  0.0000000000000D+00  0.0000000000000D+00
354  3.5300000000000D+00  0.0000000000000D+00  0.0000000000000D+00
355  3.5400000000000D+00  0.0000000000000D+00  0.0000000000000D+00
356  3.5500000000000D+00  0.0000000000000D+00  0.0000000000000D+00
357  3.5600000000000D+00  0.0000000000000D+00  0.0000000000000D+00
358  3.5700000000000D+00  0.0000000000000D+00  0.0000000000000D+00
359  3.5800000000000D+00  0.0000000000000D+00  0.0000000000000D+00
360  3.5900000000000D+00  0.0000000000000D+00  0.0000000000000D+00
361  3.6000000000000D+00  0.0000000000000D+00  0.0000000000000D+00
362  3.6100000000000D+00  0.0000000000000D+00  0.0000000000000D+00
363  3.6200000000000D+00  0.0000000000000D+00  0.0000000000000D+00
364  3.6300000000000D+00  0.0000000000000D+00  0.0000000000000D+00
365  3.6400000000000D+00  0.0000000000000D+00  0.0000000000000D+00
366  3.6500000000000D+00  0.0000000000000D+00  0.0000000000000D+00
367  3.6600000000000D+00  0.0000000000000D+00  0.0000000000000D+00
368  3.6700000000000D+00  0.0000000000000D+00  0.0000000000000D+00
369  3.6800000000000D+00  0.0000000000000D+00  0.0000000000000D+00
370  3.6900000000000D+00  0.0000000000000D+00  0.0000000000000D+00
371  3.7000000000000D+00  0.0000000000000D+00  0.0000000000000D+00
372  3.7100000000000D+00  0.0000000000000D+00  0.0000000000000D+00
373  3.7200000000000D+00  0.0000000000000D+00  0.0000000000000D+00
374  3.7300000000000D+00  0.0000000000000D+00  0.0000000000000D+00
375  3.7400000000000D+00  0.0000000000000D+00  0.0000000000000D+00
376  3.7500000000000D+00  0.0000000000000D+00  0.0000000000000D+00
377  3.7600000000000D+00  0.0000000000000D+00  0.0000000000000D+00
378  3.7700000000000D+00  0.0000000000000D+00  0.0000000000000D+00
379  3.7800000000000D+00  0.0000000000000D+00  0.0000000000000D+00
380  3.7900000000000D+00  0.0000000000000D+00  0.0000000000000D+00
381  3.8000000000000D+00  0.0000000000000D+00  0.0000000000000D+00
382  3.8100000000000D+00  0.0000000000000D+00  0.0000000000000D+00
383  3.8200000000000D+00  0.0000000000000D+00  0.0000000000000D+00
384  3.8300000000000D+00  0.0000000000000D+00  0.0000000000000D+00
385  3.8400000000000D+00  0.0000000000000D+00  0.0000000000000D+00
386  3.8500000000000D+00  0.0000000000000D+00  0.0000000000000D+00
387  3.8600000000000D+00  0.0000000000000D+00  0.0000000000000D+00
388  3.8700000000000D+00  0.0000000000000D+00  0.0000000000000D+00
389  3.8800000000000D+00  0.0000000000000D+00  0.0000000000000D+00
390  3.8900000000000D+00  0.0000000000000D+00  0.0000000000000D+00
391  3.9000000000000D+00  0.0000000000000D+00  0.0000000000000D+00
392  3.9100000000000D+00  0.0000000000000D+00  0.0000000000000D+00
393  3.9200000000000D+00  0.0000000000000D+00  0.0000000000000D+00
394  3.9300000000000D+00  0.0000000000000D+00  0.0000000000000D+00
395  3.9400000000000D+00  0.0000000000000D+00  0.0000000000000D+00
396  3.9500000000000D+00  0.0000000000000D+00  0.0000000000000D+00
397  3.9600000000000D+00  0.0000000000000D+00  0.0000000000000D+00
398  3.9700000000000D+00  0.0000000000000D+00  0.0000000000000D+00
399  3.9800000000000D+00  0.0000000000000D+00  0.0000000000000D+00
400  3.9900000000000D+00  0.0000000000000D+00  0.0000000000000D+00
401  4.0000000000000D+00  0.0000000000000D+00  0.0000000000000D+00
402  4.0100000000000D+00  0.0000000000000D+00  0.0000000000000D+00
403  4.0200000000000D+00  0.0000000000000D+00  0.0000000000000D+00
404  4.0300000000000D+00  0.0000000000000D+00  0.0000000000000D+00
405  4.0400000000000D+00  0.0000000000000D+00  0.0000000000000D+00
406  4.0500000000000D+00  0.0000000000000D+00  0.0000000000000D+00
407  4.0600000000000D+00  0.0000000000000D+00  0.0000000000000D+00
408  4.0700000000000D+00  0.0000000000000D+00  0.0000000000000D+00
409  4.0800000000000D+00  0.0000000000000D+00  0.0000000000000D+00
410  4.0900000000000D+00  0.0000000000000D+00  0.0000000000000D+00
411  4.1000000000000D+00  0.0000000000000D+00  0.0000000000000D+00
412  4.1100000000000D+00  0.0000000000000D+00  0.0000000000000D+00
413  4.1200000000000D+00  0.0000000000000D+00  0.0000000000000D+00
414  4.1300000000000D+00  0.0000000000000D+00  0.0000000000000D+00
415  4.1400000000000D+00  0.0000000000000D+00  0.0000000000000D+00
416  4.1500000000000D+00  0.0000000000000D+00  0.0000000000000D+00
417  4.1600000000000D+00  0.0000000000000D+00  0.0000000000000D+00
418  4.1700000000000D+00  0.0000000000000D+00  0.0000000000000D+00
419  4.1800000000000D+00  0.0000000000000D+00  0.0000000000000D+00
420  4.1900000000000D+00  0.0000000000000D+00  0.0000000000000D+00
421  4.2000000000000D+00  0.0000000000000D+00  0.0000000000000D+00
422  4.2100000000000D+00  0.0000000000000D+00  0.0000000000000D+00
423  4.2200000000000D+00  0.0000000000000D+00  0.0000000000000D+00
424  4.2300000000000D+00  0.0000000000000D+00  0.0000000000000D+00
425  4.2400000000000D+00  0.0000000000000D+00  0.0000000000000D+00
426  4.2500000000000D+00  0.0000000000000D+00  0.0000000000000D+00
427  4.2600000000000D+00  0.0000000000000D+00  0.0000000000000D+00
428  4.2700000000000D+00  0.0000000000000D+00  0.0000000000000D+00
429  4.2800000000000D+00  0.0000000000000D+00  0.0000000000000D+00
430  4.2900000000000D+00  0.0000000000000D+00  0.0000000000000D+00
431  4.3000000000000D+00  0.0000000000000D+00  0.0000000000000D+00
432  4.3100000000000D+00  0.0000000000000D+00  0.0000000000000D+00
433  4.3200000000000D+00  0.0000000000000D+00  0.0000000000000D+00
434  4.3300000000000D+00  0.0000000000000D+00  0.0000000000000D+00
435  4.3400000000000D+00  0.0000000000000D+00  0.0000000000000D+00
436  4.3500000000000D+00  0.0000000000000D+00  0.0000000000000D+00
437  4.3600000000000D+00  0.0000000000000D+00  0.0000000000000D+00
438  4.3700000000000D+00  0.0000000000000D+00  0.0000000000000D+00
439  4.3800000000000D+00  0.0000000000000D+00  0.0000000000000D+00
440  4.3900000000000D+00  0.0000000000000D+00  0.0000000000000D+00
441  4.4000000000000D+00  0.0000000000000D+00  0.0000000000000D+00
442  4.4100000000000D+00  0.0000000000000D+00  0.0000000000000D+00
443  4.4200000000000D+00  0.0000000000000D+00  0.0000000000000D+00