P     ONCVPSP-3.3.0  r_core=   1.46089   1.55067   1.70594
15.0000      5.0000      180423    zatom,zion,pspd
8      11   2     4   600     0    pspcod,pspxc,lmax,lloc,mmax,r2well
5.99000000  5.00000000  0.00000000    rchrg fchrg qchrg
2     3     2     0    nproj
3     1           extension_switch
3     3     0    nprojso
0                         1.0528473166113D+00  6.5989582909296D+00
1  0.0000000000000D+00  4.3306457531145D-08 -1.7852509359706D-08
2  1.0000000000000D-02 -5.2486248575809D-02  5.6650227087713D-02
3  2.0000000000000D-02 -1.0369669711475D-01  1.1275174335334D-01
4  3.0000000000000D-02 -1.5238267164073D-01  1.6776704363583D-01
5  4.0000000000000D-02 -1.9734918901599D-01  2.2118080254525D-01
6  5.0000000000000D-02 -2.3748041054098D-01  2.7251039016590D-01
7  6.0000000000000D-02 -2.7176345703265D-01  3.2131571179178D-01
8  7.0000000000000D-02 -2.9931009129759D-01  3.6720816784506D-01
9  8.0000000000000D-02 -3.1937581722322D-01  4.0985854798061D-01
10  9.0000000000000D-02 -3.3137599719626D-01  4.4900369501672D-01
11  1.0000000000000D-01 -3.3489865017289D-01  4.8445179932217D-01
12  1.1000000000000D-01 -3.2971366025761D-01  5.1608621213129D-01
13  1.2000000000000D-01 -3.1577819874281D-01  5.4386769639696D-01
14  1.3000000000000D-01 -2.9323823975606D-01  5.6783506562028D-01
15  1.4000000000000D-01 -2.6242612940663D-01  5.8810419397992D-01
16  1.5000000000000D-01 -2.2385424901604D-01  6.0486541436132D-01
17  1.6000000000000D-01 -1.7820489303761D-01  6.1837935389002D-01
18  1.7000000000000D-01 -1.2631656000415D-01  6.2897128863852D-01
19  1.8000000000000D-01 -6.9166928723899D-02  6.3702412965682D-01
20  1.9000000000000D-01 -7.8528604784494D-03  6.4297018075737D-01
21  2.0000000000000D-01  5.6432170228460D-02  6.4728183399206D-01
22  2.1000000000000D-01  1.2242276002217D-01  6.5046139097382D-01
23  2.2000000000000D-01  1.8880787505660D-01  6.5303021666380D-01
24  2.3000000000000D-01  2.5425822772603D-01  6.5551744658698D-01
25  2.4000000000000D-01  3.1745417201175D-01  6.5844847835497D-01
26  2.5000000000000D-01  3.7711354509863D-01  6.6233348365373D-01
27  2.6000000000000D-01  4.3201888175116D-01  6.6765617737586D-01
28  2.7000000000000D-01  4.8104343839318D-01  6.7486307631791D-01
29  2.8000000000000D-01  5.2317548571727D-01  6.8435347089219D-01
30  2.9000000000000D-01  5.5754036155815D-01  6.9647031978445D-01
31  3.0000000000000D-01  5.8341981907498D-01  7.1149225967970D-01
32  3.1000000000000D-01  6.0026825817091D-01  7.2962690041882D-01
33  3.2000000000000D-01  6.0772548950614D-01  7.5100555066102D-01
34  3.3000000000000D-01  6.0562574923697D-01  7.7567949080434D-01
35  3.4000000000000D-01  5.9400275738452D-01  8.0361787911377D-01
36  3.5000000000000D-01  5.7309069203319D-01  8.3470734432970D-01
37  3.6000000000000D-01  5.4332103380688D-01  8.6875328412669D-01
38  3.7000000000000D-01  5.0531531863844D-01  9.0548285433344D-01
39  3.8000000000000D-01  4.5987392006722D-01  9.4454959949972D-01
40  3.9000000000000D-01  4.0796106350628D-01  9.8553964188680D-01
41  4.0000000000000D-01  3.5068635247545D-01  1.0279793139432D+00
42  4.1000000000000D-01  2.8928315913994D-01  1.0713440894476D+00
43  4.2000000000000D-01  2.2508429714915D-01  1.1150686413667D+00
44  4.3000000000000D-01  1.5949545239461D-01  1.1585578306400D+00
45  4.4000000000000D-01  9.3966895710017D-02  1.2011984100567D+00
46  4.5000000000000D-01  2.9964039704669D-02  1.2423712115544D+00
47  4.6000000000000D-01 -3.1062570957768D-02  1.2814635739772D+00
48  4.7000000000000D-01 -8.7707231051971D-02  1.3178817618335D+00
49  4.8000000000000D-01 -1.3863839982030D-01  1.3510631240476D+00
50  4.9000000000000D-01 -1.8262678000760D-01  1.3804877451568D+00
51  5.0000000000000D-01 -2.1857157211724D-01  1.4056893498293D+00
52  5.1000000000000D-01 -2.4552435756255D-01  1.4262652348285D+00
53  5.2000000000000D-01 -2.6271010797840D-01  1.4418850203891D+00
54  5.3000000000000D-01 -2.6954487184576D-01  1.4522980350676D+00
55  5.4000000000000D-01 -2.6564975280527D-01  1.4573391740731D+00
56  5.5000000000000D-01 -2.5086086543449D-01  1.4569331004177D+00
57  5.6000000000000D-01 -2.2523503220372D-01  1.4510966902593D+00
58  5.7000000000000D-01 -1.8905106887854D-01  1.4399396581823D+00
59  5.8000000000000D-01 -1.4280659233308D-01  1.4236633338346D+00
60  5.9000000000000D-01 -8.7210373900253D-02  1.4025575980591D+00
61  6.0000000000000D-01 -2.3170350128752D-02  1.3769960232206D+00
62  6.1000000000000D-01  4.8222509321599D-02  1.3474292986463D+00
63  6.2000000000000D-01  1.2571419320293D-01  1.3143770566395D+00
64  6.3000000000000D-01  2.0791113658473D-01  1.2784182473787D+00
65  6.4000000000000D-01  2.9330676985314D-01  1.2401802408766D+00
66  6.5000000000000D-01  3.8031062894446D-01  1.2003268608879D+00
67  6.6000000000000D-01  4.6727947177729D-01  1.1595455785209D+00
68  6.7000000000000D-01  5.5254980144568D-01  1.1185341117534D+00
69  6.8000000000000D-01  6.3447116361912D-01  1.0779866908722D+00
70  6.9000000000000D-01  7.1143956473830D-01  1.0385802586336D+00
71  7.0000000000000D-01  7.8193034955565D-01  1.0009608774599D+00
72  7.1000000000000D-01  8.4452988135535D-01  9.6573061422560D-01
73  7.2000000000000D-01  8.9796538596611D-01  9.3343516608690D-01
74  7.3000000000000D-01  9.4113235122412D-01  9.0455247844886D-01
75  7.4000000000000D-01  9.7311891615305D-01  8.7948258883970D-01
76  7.5000000000000D-01  9.9322673821011D-01  8.5853890840526D-01
77  7.6000000000000D-01  1.0009878916357D+00  8.4194112630708D-01
78  7.7000000000000D-01  9.9617742337977D-01  8.2980989226321D-01
79  7.8000000000000D-01  9.7882127518508D-01  8.2216339884209D-01
80  7.9000000000000D-01  9.4919936815745D-01  8.1891594914892D-01
81  8.0000000000000D-01  9.0784373890014D-01  8.1987855749406D-01
82  8.1000000000000D-01  8.5553171186736D-01  8.2476159139376D-01
83  8.2000000000000D-01  7.9327418920762D-01  8.3317942356066D-01
84  8.3000000000000D-01  7.2229923516305D-01  8.4465702315688D-01
85  8.4000000000000D-01  6.4403122519136D-01  8.5863837727800D-01
86  8.5000000000000D-01  5.6006591855440D-01  8.7449659716162D-01
87  8.6000000000000D-01  4.7214189542028D-01  8.9154552969074D-01
88  8.7000000000000D-01  3.8210887391324D-01  9.0905266406477D-01
89  8.8000000000000D-01  2.9189348752162D-01  9.2625309665581D-01
90  8.9000000000000D-01  2.0346315751479D-01  9.4236429460059D-01
91  9.0000000000000D-01  1.1878873740274D-01  9.5660138106226D-01
92  9.1000000000000D-01  3.9806636097694D-02  9.6819265270402D-01
93  9.2000000000000D-01 -3.1618857354035D-02  9.7639503302056D-01
94  9.3000000000000D-01 -9.3732322210147D-02  9.8050916394244D-01
95  9.4000000000000D-01 -1.4492231394472D-01  9.7989384262239D-01
96  9.5000000000000D-01 -1.8375414321652D-01  9.7397952043524D-01
97  9.6000000000000D-01 -2.0899967683470D-01  9.6228059712701D-01
98  9.7000000000000D-01 -2.1966356225140D-01  9.4440626357408D-01
99  9.8000000000000D-01 -2.1500534124973D-01  9.2006967270264D-01
100  9.9000000000000D-01 -1.9455699266663D-01  8.8909524834357D-01
101  1.0000000000000D+00 -1.5813552709545D-01  8.5142397570621D-01
102  1.0100000000000D+00 -1.0585034801881D-01  8.0711655452734D-01
103  1.0200000000000D+00 -3.8105190768636D-02  7.5635433558083D-01
104  1.0300000000000D+00  4.4405445378918D-02  6.9943800374280D-01
105  1.0400000000000D+00  1.4070535747827D-01  6.3678401140911D-01
106  1.0500000000000D+00  2.4955106821144D-01  5.6891881064861D-01
107  1.0600000000000D+00  3.6945139923354D-01  4.9647097413342D-01
108  1.0700000000000D+00  4.9869186590975D-01  4.2016133495270D-01
109  1.0800000000000D+00  6.3536347435745D-01  3.4079131499925D-01
110  1.0900000000000D+00  7.7739541967310D-01  2.5922964531997D-01
111  1.1000000000000D+00  9.2259110433641D-01  1.7639771466876D-01
112  1.1100000000000D+00  1.0686668270866D+00  9.3253810796231D-02
113  1.1200000000000D+00  1.2132924413046D+00  1.0776540163342D-02
114  1.1300000000000D+00  1.3541332391189D+00 -7.0052270495655D-02
115  1.1400000000000D+00  1.4888922899404D+00 -1.4826487591703D-01
116  1.1500000000000D+00  1.6153524447083D+00 -2.2292479511088D-01
117  1.1600000000000D+00  1.7314172232161D+00 -2.9314355529660D-01
118  1.1700000000000D+00  1.8351498205363D+00 -3.5809668443742D-01
119  1.1800000000000D+00  1.9248094848470D+00 -4.1703864633928D-01
120  1.1900000000000D+00  1.9988845794267D+00 -4.6931643674845D-01
121  1.2000000000000D+00  2.0561217011261D+00 -5.1438158308516D-01
122  1.2100000000000D+00  2.0955502772348D+00 -5.5180031059447D-01
123  1.2200000000000D+00  2.1165021589108D+00 -5.8126167685571D-01
124  1.2300000000000D+00  2.1186258303208D+00 -6.0258351775988D-01
125  1.2400000000000D+00  2.1018949360187D+00 -6.1571608206126D-01
126  1.2500000000000D+00  2.0666109122388D+00 -6.2074326550330D-01
127  1.2600000000000D+00  2.0133996749830D+00 -6.1788142377350D-01
128  1.2700000000000D+00  1.9432023902199D+00 -6.0747577314381D-01
129  1.2800000000000D+00  1.8572604215939D+00 -5.8999441624070D-01
130  1.2900000000000D+00  1.7570947608235D+00 -5.6602011612634D-01
131  1.3000000000000D+00  1.6444802718244D+00 -5.3623995246791D-01
132  1.3100000000000D+00  1.5214151601732D+00 -5.0143302647995D-01
133  1.3200000000000D+00  1.3900862708370D+00 -4.6245645960881D-01
134  1.3300000000000D+00  1.2528307863890D+00 -4.2022991839281D-01
135  1.3400000000000D+00  1.1120950143798D+00 -3.7571894554806D-01
136  1.3500000000000D+00  9.7039103928078D-01 -3.2991741295998D-01
137  1.3600000000000D+00  8.3025197700575D-01 -2.8382939690692D-01
138  1.3700000000000D+00  6.9418668756488D-01 -2.3845082403814D-01
139  1.3800000000000D+00  5.6463472865718D-01 -1.9475120706424D-01
140  1.3900000000000D+00  4.4392241237515D-01 -1.5365582138420D-01
141  1.4000000000000D+00  3.3422073904156D-01 -1.1602863827694D-01
142  1.4100000000000D+00  2.3751082395265D-01 -8.2658021606167D-02
143  1.4200000000000D+00  1.5558337223162D-01 -5.4254516757164D-02
144  1.4300000000000D+00  8.9549780751199D-02 -3.1278007577069D-02
145  1.4400000000000D+00  4.1118351419973D-02 -1.4382820113263D-02
146  1.4500000000000D+00  1.2393405892179D-02 -4.3467885521700D-03
147  1.4600000000000D+00  4.7866192038856D-04 -1.7835869725925D-04
148  1.4700000000000D+00 -1.3235344276011D-03  4.5837956591296D-04
149  1.4800000000000D+00  1.5571255361441D-04 -5.4067791967867D-05
150  1.4900000000000D+00  3.6834995328460D-04 -1.2808128306046D-04
151  1.5000000000000D+00 -5.4926740797388D-05  1.9025702117392D-05
152  1.5100000000000D+00 -5.0346949488781D-05  1.7450822397684D-05
153  1.5200000000000D+00 -4.1934481401278D-08  4.1458779611562D-08
154  1.5300000000000D+00 -1.7006508402227D-08  1.6813587774299D-08
155  1.5400000000000D+00  0.0000000000000D+00  0.0000000000000D+00
156  1.5500000000000D+00  0.0000000000000D+00  0.0000000000000D+00
157  1.5600000000000D+00  0.0000000000000D+00  0.0000000000000D+00
158  1.5700000000000D+00  0.0000000000000D+00  0.0000000000000D+00
159  1.5800000000000D+00  0.0000000000000D+00  0.0000000000000D+00
160  1.5900000000000D+00  0.0000000000000D+00  0.0000000000000D+00
161  1.6000000000000D+00  0.0000000000000D+00  0.0000000000000D+00
162  1.6100000000000D+00  0.0000000000000D+00  0.0000000000000D+00
163  1.6200000000000D+00  0.0000000000000D+00  0.0000000000000D+00
164  1.6300000000000D+00  0.0000000000000D+00  0.0000000000000D+00
165  1.6400000000000D+00  0.0000000000000D+00  0.0000000000000D+00
166  1.6500000000000D+00  0.0000000000000D+00  0.0000000000000D+00
167  1.6600000000000D+00  0.0000000000000D+00  0.0000000000000D+00
168  1.6700000000000D+00  0.0000000000000D+00  0.0000000000000D+00
169  1.6800000000000D+00  0.0000000000000D+00  0.0000000000000D+00
170  1.6900000000000D+00  0.0000000000000D+00  0.0000000000000D+00
171  1.7000000000000D+00  0.0000000000000D+00  0.0000000000000D+00
172  1.7100000000000D+00  0.0000000000000D+00  0.0000000000000D+00
173  1.7200000000000D+00  0.0000000000000D+00  0.0000000000000D+00
174  1.7300000000000D+00  0.0000000000000D+00  0.0000000000000D+00
175  1.7400000000000D+00  0.0000000000000D+00  0.0000000000000D+00
176  1.7500000000000D+00  0.0000000000000D+00  0.0000000000000D+00
177  1.7600000000000D+00  0.0000000000000D+00  0.0000000000000D+00
178  1.7700000000000D+00  0.0000000000000D+00  0.0000000000000D+00
179  1.7800000000000D+00  0.0000000000000D+00  0.0000000000000D+00
180  1.7900000000000D+00  0.0000000000000D+00  0.0000000000000D+00
181  1.8000000000000D+00  0.0000000000000D+00  0.0000000000000D+00
182  1.8100000000000D+00  0.0000000000000D+00  0.0000000000000D+00
183  1.8200000000000D+00  0.0000000000000D+00  0.0000000000000D+00
184  1.8300000000000D+00  0.0000000000000D+00  0.0000000000000D+00
185  1.8400000000000D+00  0.0000000000000D+00  0.0000000000000D+00
186  1.8500000000000D+00  0.0000000000000D+00  0.0000000000000D+00
187  1.8600000000000D+00  0.0000000000000D+00  0.0000000000000D+00
188  1.8700000000000D+00  0.0000000000000D+00  0.0000000000000D+00
189  1.8800000000000D+00  0.0000000000000D+00  0.0000000000000D+00
190  1.8900000000000D+00  0.0000000000000D+00  0.0000000000000D+00
191  1.9000000000000D+00  0.0000000000000D+00  0.0000000000000D+00
192  1.9100000000000D+00  0.0000000000000D+00  0.0000000000000D+00
193  1.9200000000000D+00  0.0000000000000D+00  0.0000000000000D+00
194  1.9300000000000D+00  0.0000000000000D+00  0.0000000000000D+00
195  1.9400000000000D+00  0.0000000000000D+00  0.0000000000000D+00
196  1.9500000000000D+00  0.0000000000000D+00  0.0000000000000D+00
197  1.9600000000000D+00  0.0000000000000D+00  0.0000000000000D+00
198  1.9700000000000D+00  0.0000000000000D+00  0.0000000000000D+00
199  1.9800000000000D+00  0.0000000000000D+00  0.0000000000000D+00
200  1.9900000000000D+00  0.0000000000000D+00  0.0000000000000D+00
201  2.0000000000000D+00  0.0000000000000D+00  0.0000000000000D+00
202  2.0100000000000D+00  0.0000000000000D+00  0.0000000000000D+00
203  2.0200000000000D+00  0.0000000000000D+00  0.0000000000000D+00
204  2.0300000000000D+00  0.0000000000000D+00  0.0000000000000D+00
205  2.0400000000000D+00  0.0000000000000D+00  0.0000000000000D+00
206  2.0500000000000D+00  0.0000000000000D+00  0.0000000000000D+00
207  2.0600000000000D+00  0.0000000000000D+00  0.0000000000000D+00
208  2.0700000000000D+00  0.0000000000000D+00  0.0000000000000D+00
209  2.0800000000000D+00  0.0000000000000D+00  0.0000000000000D+00
210  2.0900000000000D+00  0.0000000000000D+00  0.0000000000000D+00
211  2.1000000000000D+00  0.0000000000000D+00  0.0000000000000D+00
212  2.1100000000000D+00  0.0000000000000D+00  0.0000000000000D+00
213  2.1200000000000D+00  0.0000000000000D+00  0.0000000000000D+00
214  2.1300000000000D+00  0.0000000000000D+00  0.0000000000000D+00
215  2.1400000000000D+00  0.0000000000000D+00  0.0000000000000D+00
216  2.1500000000000D+00  0.0000000000000D+00  0.0000000000000D+00
217  2.1600000000000D+00  0.0000000000000D+00  0.0000000000000D+00
218  2.1700000000000D+00  0.0000000000000D+00  0.0000000000000D+00
219  2.1800000000000D+00  0.0000000000000D+00  0.0000000000000D+00
220  2.1900000000000D+00  0.0000000000000D+00  0.0000000000000D+00
221  2.2000000000000D+00  0.0000000000000D+00  0.0000000000000D+00
222  2.2100000000000D+00  0.0000000000000D+00  0.0000000000000D+00
223  2.2200000000000D+00  0.0000000000000D+00  0.0000000000000D+00
224  2.2300000000000D+00  0.0000000000000D+00  0.0000000000000D+00
225  2.2400000000000D+00  0.0000000000000D+00  0.0000000000000D+00
226  2.2500000000000D+00  0.0000000000000D+00  0.0000000000000D+00
227  2.2600000000000D+00  0.0000000000000D+00  0.0000000000000D+00
228  2.2700000000000D+00  0.0000000000000D+00  0.0000000000000D+00
229  2.2800000000000D+00  0.0000000000000D+00  0.0000000000000D+00
230  2.2900000000000D+00  0.0000000000000D+00  0.0000000000000D+00
231  2.3000000000000D+00  0.0000000000000D+00  0.0000000000000D+00
232  2.3100000000000D+00  0.0000000000000D+00  0.0000000000000D+00
233  2.3200000000000D+00  0.0000000000000D+00  0.0000000000000D+00
234  2.3300000000000D+00  0.0000000000000D+00  0.0000000000000D+00
235  2.3400000000000D+00  0.0000000000000D+00  0.0000000000000D+00
236  2.3500000000000D+00  0.0000000000000D+00  0.0000000000000D+00
237  2.3600000000000D+00  0.0000000000000D+00  0.0000000000000D+00
238  2.3700000000000D+00  0.0000000000000D+00  0.0000000000000D+00
239  2.3800000000000D+00  0.0000000000000D+00  0.0000000000000D+00
240  2.3900000000000D+00  0.0000000000000D+00  0.0000000000000D+00
241  2.4000000000000D+00  0.0000000000000D+00  0.0000000000000D+00
242  2.4100000000000D+00  0.0000000000000D+00  0.0000000000000D+00
243  2.4200000000000D+00  0.0000000000000D+00  0.0000000000000D+00
244  2.4300000000000D+00  0.0000000000000D+00  0.0000000000000D+00
245  2.4400000000000D+00  0.0000000000000D+00  0.0000000000000D+00
246  2.4500000000000D+00  0.0000000000000D+00  0.0000000000000D+00
247  2.4600000000000D+00  0.0000000000000D+00  0.0000000000000D+00
248  2.4700000000000D+00  0.0000000000000D+00  0.0000000000000D+00
249  2.4800000000000D+00  0.0000000000000D+00  0.0000000000000D+00
250  2.4900000000000D+00  0.0000000000000D+00  0.0000000000000D+00
251  2.5000000000000D+00  0.0000000000000D+00  0.0000000000000D+00
252  2.5100000000000D+00  0.0000000000000D+00  0.0000000000000D+00
253  2.5200000000000D+00  0.0000000000000D+00  0.0000000000000D+00
254  2.5300000000000D+00  0.0000000000000D+00  0.0000000000000D+00
255  2.5400000000000D+00  0.0000000000000D+00  0.0000000000000D+00
256  2.5500000000000D+00  0.0000000000000D+00  0.0000000000000D+00
257  2.5600000000000D+00  0.0000000000000D+00  0.0000000000000D+00
258  2.5700000000000D+00  0.0000000000000D+00  0.0000000000000D+00
259  2.5800000000000D+00  0.0000000000000D+00  0.0000000000000D+00
260  2.5900000000000D+00  0.0000000000000D+00  0.0000000000000D+00
261  2.6000000000000D+00  0.0000000000000D+00  0.0000000000000D+00
262  2.6100000000000D+00  0.0000000000000D+00  0.0000000000000D+00
263  2.6200000000000D+00  0.0000000000000D+00  0.0000000000000D+00
264  2.6300000000000D+00  0.0000000000000D+00  0.0000000000000D+00
265  2.6400000000000D+00  0.0000000000000D+00  0.0000000000000D+00
266  2.6500000000000D+00  0.0000000000000D+00  0.0000000000000D+00
267  2.6600000000000D+00  0.0000000000000D+00  0.0000000000000D+00
268  2.6700000000000D+00  0.0000000000000D+00  0.0000000000000D+00
269  2.6800000000000D+00  0.0000000000000D+00  0.0000000000000D+00
270  2.6900000000000D+00  0.0000000000000D+00  0.0000000000000D+00
271  2.7000000000000D+00  0.0000000000000D+00  0.0000000000000D+00
272  2.7100000000000D+00  0.0000000000000D+00  0.0000000000000D+00
273  2.7200000000000D+00  0.0000000000000D+00  0.0000000000000D+00
274  2.7300000000000D+00  0.0000000000000D+00  0.0000000000000D+00
275  2.7400000000000D+00  0.0000000000000D+00  0.0000000000000D+00
276  2.7500000000000D+00  0.0000000000000D+00  0.0000000000000D+00
277  2.7600000000000D+00  0.0000000000000D+00  0.0000000000000D+00
278  2.7700000000000D+00  0.0000000000000D+00  0.0000000000000D+00
279  2.7800000000000D+00  0.0000000000000D+00  0.0000000000000D+00
280  2.7900000000000D+00  0.0000000000000D+00  0.0000000000000D+00
281  2.8000000000000D+00  0.0000000000000D+00  0.0000000000000D+00
282  2.8100000000000D+00  0.0000000000000D+00  0.0000000000000D+00
283  2.8200000000000D+00  0.0000000000000D+00  0.0000000000000D+00
284  2.8300000000000D+00  0.0000000000000D+00  0.0000000000000D+00
285  2.8400000000000D+00  0.0000000000000D+00  0.0000000000000D+00
286  2.8500000000000D+00  0.0000000000000D+00  0.0000000000000D+00
287  2.8600000000000D+00  0.0000000000000D+00  0.0000000000000D+00
288  2.8700000000000D+00  0.0000000000000D+00  0.0000000000000D+00
289  2.8800000000000D+00  0.0000000000000D+00  0.0000000000000D+00
290  2.8900000000000D+00  0.0000000000000D+00  0.0000000000000D+00
291  2.9000000000000D+00  0.0000000000000D+00  0.0000000000000D+00
292  2.9100000000000D+00  0.0000000000000D+00  0.0000000000000D+00
293  2.9200000000000D+00  0.0000000000000D+00  0.0000000000000D+00
294  2.9300000000000D+00  0.0000000000000D+00  0.0000000000000D+00
295  2.9400000000000D+00  0.0000000000000D+00  0.0000000000000D+00
296  2.9500000000000D+00  0.0000000000000D+00  0.0000000000000D+00
297  2.9600000000000D+00  0.0000000000000D+00  0.0000000000000D+00
298  2.9700000000000D+00  0.0000000000000D+00  0.0000000000000D+00
299  2.9800000000000D+00  0.0000000000000D+00  0.0000000000000D+00
300  2.9900000000000D+00  0.0000000000000D+00  0.0000000000000D+00
301  3.0000000000000D+00  0.0000000000000D+00  0.0000000000000D+00
302  3.0100000000000D+00  0.0000000000000D+00  0.0000000000000D+00
303  3.0200000000000D+00  0.0000000000000D+00  0.0000000000000D+00
304  3.0300000000000D+00  0.0000000000000D+00  0.0000000000000D+00
305  3.0400000000000D+00  0.0000000000000D+00  0.0000000000000D+00
306  3.0500000000000D+00  0.0000000000000D+00  0.0000000000000D+00
307  3.0600000000000D+00  0.0000000000000D+00  0.0000000000000D+00
308  3.0700000000000D+00  0.0000000000000D+00  0.0000000000000D+00
309  3.0800000000000D+00  0.0000000000000D+00  0.0000000000000D+00
310  3.0900000000000D+00  0.0000000000000D+00  0.0000000000000D+00
311  3.1000000000000D+00  0.0000000000000D+00  0.0000000000000D+00
312  3.1100000000000D+00  0.0000000000000D+00  0.0000000000000D+00
313  3.1200000000000D+00  0.0000000000000D+00  0.0000000000000D+00
314  3.1300000000000D+00  0.0000000000000D+00  0.0000000000000D+00
315  3.1400000000000D+00  0.0000000000000D+00  0.0000000000000D+00
316  3.1500000000000D+00  0.0000000000000D+00  0.0000000000000D+00
317  3.1600000000000D+00  0.0000000000000D+00  0.0000000000000D+00
318  3.1700000000000D+00  0.0000000000000D+00  0.0000000000000D+00
319  3.1800000000000D+00  0.0000000000000D+00  0.0000000000000D+00
320  3.1900000000000D+00  0.0000000000000D+00  0.0000000000000D+00
321  3.2000000000000D+00  0.0000000000000D+00  0.0000000000000D+00
322  3.2100000000000D+00  0.0000000000000D+00  0.0000000000000D+00
323  3.2200000000000D+00  0.0000000000000D+00  0.0000000000000D+00
324  3.2300000000000D+00  0.0000000000000D+00  0.0000000000000D+00
325  3.2400000000000D+00  0.0000000000000D+00  0.0000000000000D+00
326  3.2500000000000D+00  0.0000000000000D+00  0.0000000000000D+00
327  3.2600000000000D+00  0.0000000000000D+00  0.0000000000000D+00
328  3.2700000000000D+00  0.0000000000000D+00  0.0000000000000D+00
329  3.2800000000000D+00  0.0000000000000D+00  0.0000000000000D+00
330  3.2900000000000D+00  0.0000000000000D+00  0.0000000000000D+00
331  3.3000000000000D+00  0.0000000000000D+00  0.0000000000000D+00
332  3.3100000000000D+00  0.0000000000000D+00  0.0000000000000D+00
333  3.3200000000000D+00  0.0000000000000D+00  0.0000000000000D+00
334  3.3300000000000D+00  0.0000000000000D+00  0.0000000000000D+00
335  3.3400000000000D+00  0.0000000000000D+00  0.0000000000000D+00
336  3.3500000000000D+00  0.0000000000000D+00  0.0000000000000D+00
337  3.3600000000000D+00  0.0000000000000D+00  0.0000000000000D+00
338  3.3700000000000D+00  0.0000000000000D+00  0.0000000000000D+00
339  3.3800000000000D+00  0.0000000000000D+00  0.0000000000000D+00
340  3.3900000000000D+00  0.0000000000000D+00  0.0000000000000D+00
341  3.4000000000000D+00  0.0000000000000D+00  0.0000000000000D+00
342  3.4100000000000D+00  0.0000000000000D+00  0.0000000000000D+00
343  3.4200000000000D+00  0.0000000000000D+00  0.0000000000000D+00
344  3.4300000000000D+00  0.0000000000000D+00  0.0000000000000D+00
345  3.4400000000000D+00  0.0000000000000D+00  0.0000000000000D+00
346  3.4500000000000D+00  0.0000000000000D+00  0.0000000000000D+00
347  3.4600000000000D+00  0.0000000000000D+00  0.0000000000000D+00
348  3.4700000000000D+00  0.0000000000000D+00  0.0000000000000D+00
349  3.4800000000000D+00  0.0000000000000D+00  0.0000000000000D+00
350  3.4900000000000D+00  0.0000000000000D+00  0.0000000000000D+00
351  3.5000000000000D+00  0.0000000000000D+00  0.0000000000000D+00
352  3.5100000000000D+00  0.0000000000000D+00  0.0000000000000D+00
353  3.5200000000000D+00  0.0000000000000D+00  0.0000000000000D+00
354  3.5300000000000D+00  0.0000000000000D+00  0.0000000000000D+00
355  3.5400000000000D+00  0.0000000000000D+00  0.0000000000000D+00
356  3.5500000000000D+00  0.0000000000000D+00  0.0000000000000D+00
357  3.5600000000000D+00  0.0000000000000D+00  0.0000000000000D+00
358  3.5700000000000D+00  0.0000000000000D+00  0.0000000000000D+00
359  3.5800000000000D+00  0.0000000000000D+00  0.0000000000000D+00
360  3.5900000000000D+00  0.0000000000000D+00  0.0000000000000D+00
361  3.6000000000000D+00  0.0000000000000D+00  0.0000000000000D+00
362  3.6100000000000D+00  0.0000000000000D+00  0.0000000000000D+00
363  3.6200000000000D+00  0.0000000000000D+00  0.0000000000000D+00
364  3.6300000000000D+00  0.0000000000000D+00  0.0000000000000D+00
365  3.6400000000000D+00  0.0000000000000D+00  0.0000000000000D+00
366  3.6500000000000D+00  0.0000000000000D+00  0.0000000000000D+00
367  3.6600000000000D+00  0.0000000000000D+00  0.0000000000000D+00
368  3.6700000000000D+00  0.0000000000000D+00  0.0000000000000D+00
369  3.6800000000000D+00  0.0000000000000D+00  0.0000000000000D+00
370  3.6900000000000D+00  0.0000000000000D+00  0.0000000000000D+00
371  3.7000000000000D+00  0.0000000000000D+00  0.0000000000000D+00
372  3.7100000000000D+00  0.0000000000000D+00  0.0000000000000D+00
373  3.7200000000000D+00  0.0000000000000D+00  0.0000000000000D+00
374  3.7300000000000D+00  0.0000000000000D+00  0.0000000000000D+00
375  3.7400000000000D+00  0.0000000000000D+00  0.0000000000000D+00
376  3.7500000000000D+00  0.0000000000000D+00  0.0000000000000D+00
377  3.7600000000000D+00  0.0000000000000D+00  0.0000000000000D+00
378  3.7700000000000D+00  0.0000000000000D+00  0.0000000000000D+00
379  3.7800000000000D+00  0.0000000000000D+00  0.0000000000000D+00
380  3.7900000000000D+00  0.0000000000000D+00  0.0000000000000D+00
381  3.8000000000000D+00  0.0000000000000D+00  0.0000000000000D+00
382  3.8100000000000D+00  0.0000000000000D+00  0.0000000000000D+00
383  3.8200000000000D+00  0.0000000000000D+00  0.0000000000000D+00
384  3.8300000000000D+00  0.0000000000000D+00  0.0000000000000D+00
385  3.8400000000000D+00  0.0000000000000D+00  0.0000000000000D+00
386  3.8500000000000D+00  0.0000000000000D+00  0.0000000000000D+00
387  3.8600000000000D+00  0.0000000000000D+00  0.0000000000000D+00
388  3.8700000000000D+00  0.0000000000000D+00  0.0000000000000D+00
389  3.8800000000000D+00  0.0000000000000D+00  0.0000000000000D+00
390  3.8900000000000D+00  0.0000000000000D+00  0.0000000000000D+00
391  3.9000000000000D+00  0.0000000000000D+00  0.0000000000000D+00
392  3.9100000000000D+00  0.0000000000000D+00  0.0000000000000D+00
393  3.9200000000000D+00  0.0000000000000D+00  0.0000000000000D+00
394  3.9300000000000D+00  0.0000000000000D+00  0.0000000000000D+00
395  3.9400000000000D+00  0.0000000000000D+00  0.0000000000000D+00
396  3.9500000000000D+00  0.0000000000000D+00  0.0000000000000D+00
397  3.9600000000000D+00  0.0000000000000D+00  0.0000000000000D+00
398  3.9700000000000D+00  0.0000000000000D+00  0.0000000000000D+00
399  3.9800000000000D+00  0.0000000000000D+00  0.0000000000000D+00
400  3.9900000000000D+00  0.0000000000000D+00  0.0000000000000D+00
401  4.0000000000000D+00  0.0000000000000D+00  0.0000000000000D+00
402  4.0100000000000D+00  0.0000000000000D+00  0.0000000000000D+00
403  4.0200000000000D+00  0.0000000000000D+00  0.0000000000000D+00
404  4.0300000000000D+00  0.0000000000000D+00  0.0000000000000D+00
405  4.0400000000000D+00  0.0000000000000D+00  0.0000000000000D+00
406  4.0500000000000D+00  0.0000000000000D+00  0.0000000000000D+00
407  4.0600000000000D+00  0.0000000000000D+00  0.0000000000000D+00
408  4.0700000000000D+00  0.0000000000000D+00  0.0000000000000D+00
409  4.0800000000000D+00  0.0000000000000D+00  0.0000000000000D+00
410  4.0900000000000D+00  0.0000000000000D+00  0.0000000000000D+00
411  4.1000000000000D+00  0.0000000000000D+00  0.0000000000000D+00
412  4.1100000000000D+00  0.0000000000000D+00  0.0000000000000D+00
413  4.1200000000000D+00  0.0000000000000D+00  0.0000000000000D+00
414  4.1300000000000D+00  0.0000000000000D+00  0.0000000000000D+00
415  4.1400000000000D+00  0.0000000000000D+00  0.0000000000000D+00
416  4.1500000000000D+00  0.0000000000000D+00  0.0000000000000D+00
417  4.1600000000000D+00  0.0000000000000D+00  0.0000000000000D+00
418  4.1700000000000D+00  0.0000000000000D+00  0.0000000000000D+00
419  4.1800000000000D+00  0.0000000000000D+00  0.0000000000000D+00
420  4.1900000000000D+00  0.0000000000000D+00  0.0000000000000D+00
421  4.2000000000000D+00  0.0000000000000D+00  0.0000000000000D+00
422  4.2100000000000D+00  0.0000000000000D+00  0.0000000000000D+00
423  4.2200000000000D+00  0.0000000000000D+00  0.0000000000000D+00
424  4.2300000000000D+00  0.0000000000000D+00  0.0000000000000D+00
425  4.2400000000000D+00  0.0000000000000D+00  0.0000000000000D+00
426  4.2500000000000D+00  0.0000000000000D+00  0.0000000000000D+00
427  4.2600000000000D+00  0.0000000000000D+00  0.0000000000000D+00
428  4.2700000000000D+00  0.0000000000000D+00  0.0000000000000D+00
429  4.2800000000000D+00  0.0000000000000D+00  0.0000000000000D+00
430  4.2900000000000D+00  0.0000000000000D+00  0.0000000000000D+00
431  4.3000000000000D+00  0.0000000000000D+00  0.0000000000000D+00
432  4.3100000000000D+00  0.0000000000000D+00  0.0000000000000D+00
433  4.3200000000000D+00  0.0000000000000D+00  0.0000000000000D+00
434  4.3300000000000D+00  0.0000000000000D+00  0.0000000000000D+00
435  4.3400000000000D+00  0.0000000000000D+00  0.0000000000000D+00
436  4.3500000000000D+00  0.0000000000000D+00  0.0000000000000D+00
437  4.3600000000000D+00  0.0000000000000D+00  0.0000000000000D+00
438  4.3700000000000D+00  0.0000000000000D+00  0.0000000000000D+00
439  4.3800000000000D+00  0.0000000000000D+00  0.0000000000000D+00
440  4.3900000000000D+00  0.0000000000000D+00  0.0000000000000D+00
441  4.4000000000000D+00  0.0000000000000D+00  0.0000000000000D+00
442  4.4100000000000D+00  0.0000000000000D+00  0.0000000000000D+00
443  4.4200000000000D+00  0.0000000000000D+00  0.0000000000000D+00