Rb    ONCVPSP-3.2.3.1  r_core=   1.71227   1.75361   1.90633
37.0000      9.0000      170510    zatom,zion,pspd
8      11   2     4   600     0    pspcod,pspxc,lmax,lloc,mmax,r2well
5.99000000  7.00000000  0.00000000    rchrg fchrg qchrg
2     2     2     0     0    nproj
1     1           extension_switch
0                         8.2462009071525D+00 -4.6908140517097D-01
1  0.0000000000000D+00  3.9101416549059D-10  1.6848062042718D-09
2  1.0000000000000D-02  5.7280105876219D-02 -6.8523587550238D-03
3  2.0000000000000D-02  1.1449972305112D-01 -1.3585569604598D-02
4  3.0000000000000D-02  1.7159804698829D-01 -2.0082367401112D-02
5  4.0000000000000D-02  2.2851364826847D-01 -2.6229223192842D-02
6  5.0000000000000D-02  2.8518417701539D-01 -3.1918139459308D-02
7  6.0000000000000D-02  3.4154608727982D-01 -3.7048359128633D-02
8  7.0000000000000D-02  3.9753438756853D-01 -4.1527961646961D-02
9  8.0000000000000D-02  4.5308242331369D-01 -4.5275321054827D-02
10  9.0000000000000D-02  5.0812169659998D-01 -4.8220403084945D-02
11  1.0000000000000D-01  5.6258172790855D-01 -5.0305880700080D-02
12  1.1000000000000D-01  6.1638996400577D-01 -5.1488050204003D-02
13  1.2000000000000D-01  6.6947173541089D-01 -5.1737533042924D-02
14  1.3000000000000D-01  7.2175026612935D-01 -5.1039751625920D-02
15  1.4000000000000D-01  7.7314673754841D-01 -4.9395170884173D-02
16  1.5000000000000D-01  8.2358040757062D-01 -4.6819300810159D-02
17  1.6000000000000D-01  8.7296878521975D-01 -4.3342458818642D-02
18  1.7000000000000D-01  9.2122786010604D-01 -3.9009294397452D-02
19  1.8000000000000D-01  9.6827238529406D-01 -3.3878082116049D-02
20  1.9000000000000D-01  1.0140162112903D+00 -2.8019792579173D-02
21  2.0000000000000D-01  1.0583726680705D+00 -2.1516954300723D-02
22  2.1000000000000D-01  1.1012549913093D+00 -1.4462322679153D-02
23  2.2000000000000D-01  1.1425767882702D+00 -6.9573752323321D-03
24  2.3000000000000D-01  1.1822525381687D+00  8.8934504734664D-04
25  2.4000000000000D-01  1.2201981212502D+00  8.9640139673725D-03
26  2.5000000000000D-01  1.2563313703304D+00  1.7149411749993D-02
27  2.6000000000000D-01  1.2905726381378D+00  2.5326882040332D-02
28  2.7000000000000D-01  1.3228453734878D+00  3.3378335108627D-02
29  2.8000000000000D-01  1.3530766990968D+00  4.1188265222147D-02
30  2.9000000000000D-01  1.3811979837334D+00  4.8645751776233D-02
31  3.0000000000000D-01  1.4071454013880D+00  5.5646413834955D-02
32  3.1000000000000D-01  1.4308604702335D+00  6.2094288240374D-02
33  3.2000000000000D-01  1.4522905643424D+00  6.7903602399818D-02
34  3.3000000000000D-01  1.4713893914172D+00  7.3000414240337D-02
35  3.4000000000000D-01  1.4881174301782D+00  7.7324093610669D-02
36  3.5000000000000D-01  1.5024423215313D+00  8.0828621588294D-02
37  3.6000000000000D-01  1.5143392082004D+00  8.3483686683044D-02
38  3.7000000000000D-01  1.5237910181455D+00  8.5275559782843D-02
39  3.8000000000000D-01  1.5307886877930D+00  8.6207732821911D-02
40  3.9000000000000D-01  1.5353313218652D+00  8.6301309521718D-02
41  4.0000000000000D-01  1.5374262874069D+00  8.5595140113029D-02
42  4.1000000000000D-01  1.5370892404437D+00  8.4145695640622D-02
43  4.2000000000000D-01  1.5343440845795D+00  8.2026681229621D-02
44  4.3000000000000D-01  1.5292228617108D+00  7.9328391496672D-02
45  4.4000000000000D-01  1.5217655759130D+00  7.6156815066998D-02
46  4.5000000000000D-01  1.5120199524120D+00  7.2632498852752D-02
47  4.6000000000000D-01  1.5000411343886D+00  6.8889186305779D-02
48  4.7000000000000D-01  1.4858913211560D+00  6.5072247226388D-02
49  4.8000000000000D-01  1.4696393519962D+00  6.1336919836648D-02
50  4.9000000000000D-01  1.4513602406238D+00  5.7846388669830D-02
51  5.0000000000000D-01  1.4311346658575D+00  5.4769724338362D-02
52  5.1000000000000D-01  1.4090484246149D+00  5.2279713387604D-02
53  5.2000000000000D-01  1.3851918537887D+00  5.0550608185603D-02
54  5.3000000000000D-01  1.3596592279173D+00  4.9755828114226D-02
55  5.4000000000000D-01  1.3325481398148D+00  5.0065644192294D-02
56  5.5000000000000D-01  1.3039588714752D+00  5.1644879661871D-02
57  5.6000000000000D-01  1.2739937626142D+00  5.4650658997661D-02
58  5.7000000000000D-01  1.2427565841484D+00  5.9230237253142D-02
59  5.8000000000000D-01  1.2103519237536D+00  6.5518940644452D-02
60  5.9000000000000D-01  1.1768845903719D+00  7.3638247802373D-02
61  6.0000000000000D-01  1.1424590441791D+00  8.3694039218913D-02
62  6.1000000000000D-01  1.1071788580636D+00  9.5775040099391D-02
63  6.2000000000000D-01  1.0711462161262D+00  1.0995147913328D-01
64  6.3000000000000D-01  1.0344614540944D+00  1.2627398267251D-01
65  6.4000000000000D-01  9.9722264584819D-01  1.4477272045986D-01
66  6.5000000000000D-01  9.5952523951661D-01  1.6545681548236D-01
67  6.6000000000000D-01  9.2146174580474D-01  1.8831402673958D-01
68  6.7000000000000D-01  8.8312148038467D-01  2.1331070978966D-01
69  6.8000000000000D-01  8.4459036133279D-01  2.4039205593259D-01
70  6.9000000000000D-01  8.0595076173689D-01  2.6948260685869D-01
71  7.0000000000000D-01  7.6728141673715D-01  3.0048703757354D-01
72  7.1000000000000D-01  7.2865738342798D-01  3.3329119651181D-01
73  7.2000000000000D-01  6.9015005123532D-01  3.6776338798218D-01
74  7.3000000000000D-01  6.5182719961971D-01  4.0375587854748D-01
75  7.4000000000000D-01  6.1375309923713D-01  4.4110660563118D-01
76  7.5000000000000D-01  5.7598865204479D-01  4.7964106367724D-01
77  7.6000000000000D-01  5.3859156526506D-01  5.1917434056119D-01
78  7.7000000000000D-01  5.0161655363314D-01  5.5951327472757D-01
79  7.8000000000000D-01  4.6511556395850D-01  6.0045870173854D-01
80  7.9000000000000D-01  4.2913801573445D-01  6.4180775759262D-01
81  8.0000000000000D-01  3.9373105133815D-01  6.8335620533131D-01
82  8.1000000000000D-01  3.5893978927891D-01  7.2490075110960D-01
83  8.2000000000000D-01  3.2480757397861D-01  7.6624131607658D-01
84  8.3000000000000D-01  2.9137621570249D-01  8.0718323108868D-01
85  8.4000000000000D-01  2.5868621450217D-01  8.4753932245644D-01
86  8.5000000000000D-01  2.2677696238057D-01  8.8713185859108D-01
87  8.6000000000000D-01  1.9568691833658D-01  9.2579432954617D-01
88  8.7000000000000D-01  1.6545375148899D-01  9.6337303401306D-01
89  8.8000000000000D-01  1.3611444810667D-01  9.9972845129066D-01
90  8.9000000000000D-01  1.0770537907503D-01  1.0347363790671D+00
91  9.0000000000000D-01  8.0262325098309D-02  1.0682888214753D+00
92  9.1000000000000D-01  5.3820457759890D-02  1.1002946157631D+00
93  9.2000000000000D-01  2.8414275425778D-02  1.1306797899872D+00
94  9.3000000000000D-01  4.0774938738697D-03  1.1593876483803D+00
95  9.4000000000000D-01 -1.9157107576976D-02  1.1863785852549D+00
96  9.5000000000000D-01 -4.1257882743227D-02  1.2116296326780D+00
97  9.6000000000000D-01 -6.2194555485572D-02  1.2351337513261D+00
98  9.7000000000000D-01 -8.1938493415388D-02  1.2568988780545D+00
99  9.8000000000000D-01 -1.0046301414924D-01  1.2769467476312D+00
100  9.9000000000000D-01 -1.1774371910508D-01  1.2953115097509D+00
101  1.0000000000000D+00 -1.3375884914831D-01  1.3120381658058D+00
102  1.0100000000000D+00 -1.4848965578830D-01  1.3271808529059D+00
103  1.0200000000000D+00 -1.6192078112750D-01  1.3408010051742D+00
104  1.0300000000000D+00 -1.7404063934772D-01  1.3529654245283D+00
105  1.0400000000000D+00 -1.8484179222590D-01  1.3637442947932D+00
106  1.0500000000000D+00 -1.9432131099972D-01  1.3732091740812D+00
107  1.0600000000000D+00 -2.0248111684270D-01  1.3814310009855D+00
108  1.0700000000000D+00 -2.0932829230624D-01  1.3884781500574D+00
109  1.0800000000000D+00 -2.1487535623441D-01  1.3944145716735D+00
110  1.0900000000000D+00 -2.1914049503856D-01  1.3992980501128D+00
111  1.1000000000000D+00 -2.2214774363416D-01  1.4031786121197D+00
112  1.1100000000000D+00 -2.2392710994576D-01  1.4060971159215D+00
113  1.1200000000000D+00 -2.2451463754966D-01  1.4080840480542D+00
114  1.1300000000000D+00 -2.2395240176463D-01  1.4091585523999D+00
115  1.1400000000000D+00 -2.2228843549091D-01  1.4093277118216D+00
116  1.1500000000000D+00 -2.1957658201837D-01  1.4085860990177D+00
117  1.1600000000000D+00 -2.1587627305707D-01  1.4069156089721D+00
118  1.1700000000000D+00 -2.1125223125577D-01  1.4042855812022D+00
119  1.1800000000000D+00 -2.0577409781615D-01  1.4006532144300D+00
120  1.1900000000000D+00 -1.9951598694322D-01  1.3959642715851D+00
121  1.2000000000000D+00 -1.9255596975444D-01  1.3901540693741D+00
122  1.2100000000000D+00 -1.8497549182973D-01  1.3831487401350D+00
123  1.2200000000000D+00 -1.7685872964153D-01  1.3748667492682D+00
124  1.2300000000000D+00 -1.6829189209725D-01  1.3652206473768D+00
125  1.2400000000000D+00 -1.5936247441559D-01  1.3541190321055D+00
126  1.2500000000000D+00 -1.5015847295100D-01  1.3414686888260D+00
127  1.2600000000000D+00 -1.4076757013141D-01  1.3271768769980D+00
128  1.2700000000000D+00 -1.3127629932800D-01  1.3111537263020D+00
129  1.2800000000000D+00 -1.2176920075607D-01  1.2933147012523D+00
130  1.2900000000000D+00 -1.1232797949418D-01  1.2735830930379D+00
131  1.3000000000000D+00 -1.0303067728610D-01  1.2518924949210D+00
132  1.3100000000000D+00 -9.3950870333665D-02  1.2281892152013D+00
133  1.3200000000000D+00 -8.5156904888701D-02  1.2024345833846D+00
134  1.3300000000000D+00 -7.6711183039113D-02  1.1746071027665D+00
135  1.3400000000000D+00 -6.8669510256473D-02  1.1447044059312D+00
136  1.3500000000000D+00 -6.1080516190561D-02  1.1127449699981D+00
137  1.3600000000000D+00 -5.3985160147878D-02  1.0787695486367D+00
138  1.3700000000000D+00 -4.7416330330905D-02  1.0428422872853D+00
139  1.3800000000000D+00 -4.1398547507300D-02  1.0050514816627D+00
140  1.3900000000000D+00 -3.5947780607706D-02  9.6550995233212D-01
141  1.4000000000000D+00 -3.1071380583693D-02  9.2435501255881D-01
142  1.4100000000000D+00 -2.6768140554825D-02  8.8174800019116D-01
143  1.4200000000000D+00 -2.3028483013719D-02  8.3787337267767D-01
144  1.4300000000000D+00 -1.9834779655902D-02  7.9293734554766D-01
145  1.4400000000000D+00 -1.7161803075467D-02  7.4716607952155D-01
146  1.4500000000000D+00 -1.4977307662363D-02  7.0080342821075D-01
147  1.4600000000000D+00 -1.3242740887288D-02  6.5410824430775D-01
148  1.4700000000000D+00 -1.1914072499525D-02  6.0735129335369D-01
149  1.4800000000000D+00 -1.0942741769826D-02  5.6081177707415D-01
150  1.4900000000000D+00 -1.0276705905485D-02  5.1477353176039D-01
151  1.5000000000000D+00 -9.8615806979823D-03  4.6952093708635D-01
152  1.5100000000000D+00 -9.6418589041181D-03  4.2533459236846D-01
153  1.5200000000000D+00 -9.5621831356372D-03  3.8248684672525D-01
154  1.5300000000000D+00 -9.5686632642969D-03  3.4123722480002D-01
155  1.5400000000000D+00 -9.6102001010255D-03  3.0182788614941D-01
156  1.5500000000000D+00 -9.6398074346934D-03  2.6447915383435D-01
157  1.5600000000000D+00 -9.6158847988876D-03  2.2938528115560D-01
158  1.5700000000000D+00 -9.5034256561901D-03  1.9671051771055D-01
159  1.5800000000000D+00 -9.2751129370600D-03  1.6658564408027D-01
160  1.5900000000000D+00 -8.9122726375199D-03  1.3910508212735D-01
161  1.6000000000000D+00 -8.4056398778931D-03  1.1432474188552D-01
162  1.6100000000000D+00 -7.7558919882551D-03  9.2260761960307D-02
163  1.6200000000000D+00 -6.9739064928433D-03  7.2889294246942D-02
164  1.6300000000000D+00 -6.0806806980810D-03  5.6147542078457D-02
165  1.6400000000000D+00 -5.1068749224246D-03  4.1936191712956D-02
166  1.6500000000000D+00 -4.0918964781497D-03  3.0123500612881D-02
167  1.6600000000000D+00 -3.0835409748134D-03  2.0556968670598D-02
168  1.6700000000000D+00 -2.1311404934154D-03  1.3044555298410D-02
169  1.6800000000000D+00 -1.2848070813775D-03  7.3781029460043D-03
170  1.6900000000000D+00 -6.1578485981603D-04  3.4639796485862D-03
171  1.7000000000000D+00 -1.8139871143784D-04  1.1916810300658D-03
172  1.7100000000000D+00  2.6824479446932D-05  1.7328242022902D-04
173  1.7200000000000D+00  6.1057148109513D-05 -9.1563635900372D-05
174  1.7300000000000D+00  1.4689461162783D-05 -3.0640946214288D-05
175  1.7400000000000D+00 -1.3646033545279D-05  3.3165740945828D-05
176  1.7500000000000D+00 -6.4074524079265D-06  1.6365788067274D-05
177  1.7600000000000D+00  2.3740484909448D-06 -5.5211626236488D-06
178  1.7700000000000D+00  1.6283048073344D-06 -3.9384228650504D-06
179  1.7800000000000D+00 -1.0368363750705D-07 -1.4319010809583D-07
180  1.7900000000000D+00 -9.9325351535981D-08 -1.3717118886889D-07
181  1.8000000000000D+00  0.0000000000000D+00  0.0000000000000D+00
182  1.8100000000000D+00  0.0000000000000D+00  0.0000000000000D+00
183  1.8200000000000D+00  0.0000000000000D+00  0.0000000000000D+00
184  1.8300000000000D+00  0.0000000000000D+00  0.0000000000000D+00
185  1.8400000000000D+00  0.0000000000000D+00  0.0000000000000D+00
186  1.8500000000000D+00  0.0000000000000D+00  0.0000000000000D+00
187  1.8600000000000D+00  0.0000000000000D+00  0.0000000000000D+00
188  1.8700000000000D+00  0.0000000000000D+00  0.0000000000000D+00
189  1.8800000000000D+00  0.0000000000000D+00  0.0000000000000D+00
190  1.8900000000000D+00  0.0000000000000D+00  0.0000000000000D+00
191  1.9000000000000D+00  0.0000000000000D+00  0.0000000000000D+00
192  1.9100000000000D+00  0.0000000000000D+00  0.0000000000000D+00
193  1.9200000000000D+00  0.0000000000000D+00  0.0000000000000D+00
194  1.9300000000000D+00  0.0000000000000D+00  0.0000000000000D+00
195  1.9400000000000D+00  0.0000000000000D+00  0.0000000000000D+00
196  1.9500000000000D+00  0.0000000000000D+00  0.0000000000000D+00
197  1.9600000000000D+00  0.0000000000000D+00  0.0000000000000D+00
198  1.9700000000000D+00  0.0000000000000D+00  0.0000000000000D+00
199  1.9800000000000D+00  0.0000000000000D+00  0.0000000000000D+00
200  1.9900000000000D+00  0.0000000000000D+00  0.0000000000000D+00
201  2.0000000000000D+00  0.0000000000000D+00  0.0000000000000D+00
202  2.0100000000000D+00  0.0000000000000D+00  0.0000000000000D+00
203  2.0200000000000D+00  0.0000000000000D+00  0.0000000000000D+00
204  2.0300000000000D+00  0.0000000000000D+00  0.0000000000000D+00
205  2.0400000000000D+00  0.0000000000000D+00  0.0000000000000D+00
206  2.0500000000000D+00  0.0000000000000D+00  0.0000000000000D+00
207  2.0600000000000D+00  0.0000000000000D+00  0.0000000000000D+00
208  2.0700000000000D+00  0.0000000000000D+00  0.0000000000000D+00
209  2.0800000000000D+00  0.0000000000000D+00  0.0000000000000D+00
210  2.0900000000000D+00  0.0000000000000D+00  0.0000000000000D+00
211  2.1000000000000D+00  0.0000000000000D+00  0.0000000000000D+00
212  2.1100000000000D+00  0.0000000000000D+00  0.0000000000000D+00
213  2.1200000000000D+00  0.0000000000000D+00  0.0000000000000D+00
214  2.1300000000000D+00  0.0000000000000D+00  0.0000000000000D+00
215  2.1400000000000D+00  0.0000000000000D+00  0.0000000000000D+00
216  2.1500000000000D+00  0.0000000000000D+00  0.0000000000000D+00
217  2.1600000000000D+00  0.0000000000000D+00  0.0000000000000D+00
218  2.1700000000000D+00  0.0000000000000D+00  0.0000000000000D+00
219  2.1800000000000D+00  0.0000000000000D+00  0.0000000000000D+00
220  2.1900000000000D+00  0.0000000000000D+00  0.0000000000000D+00
221  2.2000000000000D+00  0.0000000000000D+00  0.0000000000000D+00
222  2.2100000000000D+00  0.0000000000000D+00  0.0000000000000D+00
223  2.2200000000000D+00  0.0000000000000D+00  0.0000000000000D+00
224  2.2300000000000D+00  0.0000000000000D+00  0.0000000000000D+00
225  2.2400000000000D+00  0.0000000000000D+00  0.0000000000000D+00
226  2.2500000000000D+00  0.0000000000000D+00  0.0000000000000D+00
227  2.2600000000000D+00  0.0000000000000D+00  0.0000000000000D+00
228  2.2700000000000D+00  0.0000000000000D+00  0.0000000000000D+00
229  2.2800000000000D+00  0.0000000000000D+00  0.0000000000000D+00
230  2.2900000000000D+00  0.0000000000000D+00  0.0000000000000D+00
231  2.3000000000000D+00  0.0000000000000D+00  0.0000000000000D+00
232  2.3100000000000D+00  0.0000000000000D+00  0.0000000000000D+00
233  2.3200000000000D+00  0.0000000000000D+00  0.0000000000000D+00
234  2.3300000000000D+00  0.0000000000000D+00  0.0000000000000D+00
235  2.3400000000000D+00  0.0000000000000D+00  0.0000000000000D+00
236  2.3500000000000D+00  0.0000000000000D+00  0.0000000000000D+00
237  2.3600000000000D+00  0.0000000000000D+00  0.0000000000000D+00
238  2.3700000000000D+00  0.0000000000000D+00  0.0000000000000D+00
239  2.3800000000000D+00  0.0000000000000D+00  0.0000000000000D+00
240  2.3900000000000D+00  0.0000000000000D+00  0.0000000000000D+00
241  2.4000000000000D+00  0.0000000000000D+00  0.0000000000000D+00
242  2.4100000000000D+00  0.0000000000000D+00  0.0000000000000D+00
243  2.4200000000000D+00  0.0000000000000D+00  0.0000000000000D+00
244  2.4300000000000D+00  0.0000000000000D+00  0.0000000000000D+00
245  2.4400000000000D+00  0.0000000000000D+00  0.0000000000000D+00
246  2.4500000000000D+00  0.0000000000000D+00  0.0000000000000D+00
247  2.4600000000000D+00  0.0000000000000D+00  0.0000000000000D+00
248  2.4700000000000D+00  0.0000000000000D+00  0.0000000000000D+00
249  2.4800000000000D+00  0.0000000000000D+00  0.0000000000000D+00
250  2.4900000000000D+00  0.0000000000000D+00  0.0000000000000D+00
251  2.5000000000000D+00  0.0000000000000D+00  0.0000000000000D+00
252  2.5100000000000D+00  0.0000000000000D+00  0.0000000000000D+00
253  2.5200000000000D+00  0.0000000000000D+00  0.0000000000000D+00
254  2.5300000000000D+00  0.0000000000000D+00  0.0000000000000D+00
255  2.5400000000000D+00  0.0000000000000D+00  0.0000000000000D+00
256  2.5500000000000D+00  0.0000000000000D+00  0.0000000000000D+00
257  2.5600000000000D+00  0.0000000000000D+00  0.0000000000000D+00
258  2.5700000000000D+00  0.0000000000000D+00  0.0000000000000D+00
259  2.5800000000000D+00  0.0000000000000D+00  0.0000000000000D+00
260  2.5900000000000D+00  0.0000000000000D+00  0.0000000000000D+00
261  2.6000000000000D+00  0.0000000000000D+00  0.0000000000000D+00
262  2.6100000000000D+00  0.0000000000000D+00  0.0000000000000D+00
263  2.6200000000000D+00  0.0000000000000D+00  0.0000000000000D+00
264  2.6300000000000D+00  0.0000000000000D+00  0.0000000000000D+00
265  2.6400000000000D+00  0.0000000000000D+00  0.0000000000000D+00
266  2.6500000000000D+00  0.0000000000000D+00  0.0000000000000D+00
267  2.6600000000000D+00  0.0000000000000D+00  0.0000000000000D+00
268  2.6700000000000D+00  0.0000000000000D+00  0.0000000000000D+00
269  2.6800000000000D+00  0.0000000000000D+00  0.0000000000000D+00
270  2.6900000000000D+00  0.0000000000000D+00  0.0000000000000D+00
271  2.7000000000000D+00  0.0000000000000D+00  0.0000000000000D+00
272  2.7100000000000D+00  0.0000000000000D+00  0.0000000000000D+00
273  2.7200000000000D+00  0.0000000000000D+00  0.0000000000000D+00
274  2.7300000000000D+00  0.0000000000000D+00  0.0000000000000D+00
275  2.7400000000000D+00  0.0000000000000D+00  0.0000000000000D+00
276  2.7500000000000D+00  0.0000000000000D+00  0.0000000000000D+00
277  2.7600000000000D+00  0.0000000000000D+00  0.0000000000000D+00
278  2.7700000000000D+00  0.0000000000000D+00  0.0000000000000D+00
279  2.7800000000000D+00  0.0000000000000D+00  0.0000000000000D+00
280  2.7900000000000D+00  0.0000000000000D+00  0.0000000000000D+00
281  2.8000000000000D+00  0.0000000000000D+00  0.0000000000000D+00
282  2.8100000000000D+00  0.0000000000000D+00  0.0000000000000D+00
283  2.8200000000000D+00  0.0000000000000D+00  0.0000000000000D+00
284  2.8300000000000D+00  0.0000000000000D+00  0.0000000000000D+00
285  2.8400000000000D+00  0.0000000000000D+00  0.0000000000000D+00
286  2.8500000000000D+00  0.0000000000000D+00  0.0000000000000D+00
287  2.8600000000000D+00  0.0000000000000D+00  0.0000000000000D+00
288  2.8700000000000D+00  0.0000000000000D+00  0.0000000000000D+00
289  2.8800000000000D+00  0.0000000000000D+00  0.0000000000000D+00
290  2.8900000000000D+00  0.0000000000000D+00  0.0000000000000D+00
291  2.9000000000000D+00  0.0000000000000D+00  0.0000000000000D+00
292  2.9100000000000D+00  0.0000000000000D+00  0.0000000000000D+00
293  2.9200000000000D+00  0.0000000000000D+00  0.0000000000000D+00
294  2.9300000000000D+00  0.0000000000000D+00  0.0000000000000D+00
295  2.9400000000000D+00  0.0000000000000D+00  0.0000000000000D+00
296  2.9500000000000D+00  0.0000000000000D+00  0.0000000000000D+00
297  2.9600000000000D+00  0.0000000000000D+00  0.0000000000000D+00
298  2.9700000000000D+00  0.0000000000000D+00  0.0000000000000D+00
299  2.9800000000000D+00  0.0000000000000D+00  0.0000000000000D+00
300  2.9900000000000D+00  0.0000000000000D+00  0.0000000000000D+00
301  3.0000000000000D+00  0.0000000000000D+00  0.0000000000000D+00
302  3.0100000000000D+00  0.0000000000000D+00  0.0000000000000D+00
303  3.0200000000000D+00  0.0000000000000D+00  0.0000000000000D+00
304  3.0300000000000D+00  0.0000000000000D+00  0.0000000000000D+00
305  3.0400000000000D+00  0.0000000000000D+00  0.0000000000000D+00
306  3.0500000000000D+00  0.0000000000000D+00  0.0000000000000D+00
307  3.0600000000000D+00  0.0000000000000D+00  0.0000000000000D+00
308  3.0700000000000D+00  0.0000000000000D+00  0.0000000000000D+00
309  3.0800000000000D+00  0.0000000000000D+00  0.0000000000000D+00
310  3.0900000000000D+00  0.0000000000000D+00  0.0000000000000D+00
311  3.1000000000000D+00  0.0000000000000D+00  0.0000000000000D+00
312  3.1100000000000D+00  0.0000000000000D+00  0.0000000000000D+00
313  3.1200000000000D+00  0.0000000000000D+00  0.0000000000000D+00
314  3.1300000000000D+00  0.0000000000000D+00  0.0000000000000D+00
315  3.1400000000000D+00  0.0000000000000D+00  0.0000000000000D+00
316  3.1500000000000D+00  0.0000000000000D+00  0.0000000000000D+00
317  3.1600000000000D+00  0.0000000000000D+00  0.0000000000000D+00
318  3.1700000000000D+00  0.0000000000000D+00  0.0000000000000D+00
319  3.1800000000000D+00  0.0000000000000D+00  0.0000000000000D+00
320  3.1900000000000D+00  0.0000000000000D+00  0.0000000000000D+00
321  3.2000000000000D+00  0.0000000000000D+00  0.0000000000000D+00
322  3.2100000000000D+00  0.0000000000000D+00  0.0000000000000D+00
323  3.2200000000000D+00  0.0000000000000D+00  0.0000000000000D+00
324  3.2300000000000D+00  0.0000000000000D+00  0.0000000000000D+00
325  3.2400000000000D+00  0.0000000000000D+00  0.0000000000000D+00
326  3.2500000000000D+00  0.0000000000000D+00  0.0000000000000D+00
327  3.2600000000000D+00  0.0000000000000D+00  0.0000000000000D+00
328  3.2700000000000D+00  0.0000000000000D+00  0.0000000000000D+00
329  3.2800000000000D+00  0.0000000000000D+00  0.0000000000000D+00
330  3.2900000000000D+00  0.0000000000000D+00  0.0000000000000D+00
331  3.3000000000000D+00  0.0000000000000D+00  0.0000000000000D+00
332  3.3100000000000D+00  0.0000000000000D+00  0.0000000000000D+00
333  3.3200000000000D+00  0.0000000000000D+00  0.0000000000000D+00
334  3.3300000000000D+00  0.0000000000000D+00  0.0000000000000D+00
335  3.3400000000000D+00  0.0000000000000D+00  0.0000000000000D+00
336  3.3500000000000D+00  0.0000000000000D+00  0.0000000000000D+00
337  3.3600000000000D+00  0.0000000000000D+00  0.0000000000000D+00
338  3.3700000000000D+00  0.0000000000000D+00  0.0000000000000D+00
339  3.3800000000000D+00  0.0000000000000D+00  0.0000000000000D+00
340  3.3900000000000D+00  0.0000000000000D+00  0.0000000000000D+00
341  3.4000000000000D+00  0.0000000000000D+00  0.0000000000000D+00
342  3.4100000000000D+00  0.0000000000000D+00  0.0000000000000D+00
343  3.4200000000000D+00  0.0000000000000D+00  0.0000000000000D+00
344  3.4300000000000D+00  0.0000000000000D+00  0.0000000000000D+00
345  3.4400000000000D+00  0.0000000000000D+00  0.0000000000000D+00
346  3.4500000000000D+00  0.0000000000000D+00  0.0000000000000D+00
347  3.4600000000000D+00  0.0000000000000D+00  0.0000000000000D+00
348  3.4700000000000D+00  0.0000000000000D+00  0.0000000000000D+00
349  3.4800000000000D+00  0.0000000000000D+00  0.0000000000000D+00
350  3.4900000000000D+00  0.0000000000000D+00  0.0000000000000D+00
351  3.5000000000000D+00  0.0000000000000D+00  0.0000000000000D+00
352  3.5100000000000D+00  0.0000000000000D+00  0.0000000000000D+00
353  3.5200000000000D+00  0.0000000000000D+00  0.0000000000000D+00
354  3.5300000000000D+00  0.0000000000000D+00  0.0000000000000D+00
355  3.5400000000000D+00  0.0000000000000D+00  0.0000000000000D+00
356  3.5500000000000D+00  0.0000000000000D+00  0.0000000000000D+00
357  3.5600000000000D+00  0.0000000000000D+00  0.0000000000000D+00
358  3.5700000000000D+00  0.0000000000000D+00  0.0000000000000D+00
359  3.5800000000000D+00  0.0000000000000D+00  0.0000000000000D+00
360  3.5900000000000D+00  0.0000000000000D+00  0.0000000000000D+00
361  3.6000000000000D+00  0.0000000000000D+00  0.0000000000000D+00
362  3.6100000000000D+00  0.0000000000000D+00  0.0000000000000D+00
363  3.6200000000000D+00  0.0000000000000D+00  0.0000000000000D+00
364  3.6300000000000D+00  0.0000000000000D+00  0.0000000000000D+00
365  3.6400000000000D+00  0.0000000000000D+00  0.0000000000000D+00
366  3.6500000000000D+00  0.0000000000000D+00  0.0000000000000D+00
367  3.6600000000000D+00  0.0000000000000D+00  0.0000000000000D+00
368  3.6700000000000D+00  0.0000000000000D+00  0.0000000000000D+00
369  3.6800000000000D+00  0.0000000000000D+00  0.0000000000000D+00
370  3.6900000000000D+00  0.0000000000000D+00  0.0000000000000D+00
371  3.7000000000000D+00  0.0000000000000D+00  0.0000000000000D+00
372  3.7100000000000D+00  0.0000000000000D+00  0.0000000000000D+00
373  3.7200000000000D+00  0.0000000000000D+00  0.0000000000000D+00
374  3.7300000000000D+00  0.0000000000000D+00  0.0000000000000D+00
375  3.7400000000000D+00  0.0000000000000D+00  0.0000000000000D+00
376  3.7500000000000D+00  0.0000000000000D+00  0.0000000000000D+00
377  3.7600000000000D+00  0.0000000000000D+00  0.0000000000000D+00
378  3.7700000000000D+00  0.0000000000000D+00  0.0000000000000D+00
379  3.7800000000000D+00  0.0000000000000D+00  0.0000000000000D+00
380  3.7900000000000D+00  0.0000000000000D+00  0.0000000000000D+00
381  3.8000000000000D+00  0.0000000000000D+00  0.0000000000000D+00
382  3.8100000000000D+00  0.0000000000000D+00  0.0000000000000D+00
383  3.8200000000000D+00  0.0000000000000D+00  0.0000000000000D+00
384  3.8300000000000D+00  0.0000000000000D+00  0.0000000000000D+00
385  3.8400000000000D+00  0.0000000000000D+00  0.0000000000000D+00
386  3.8500000000000D+00  0.0000000000000D+00  0.0000000000000D+00
387  3.8600000000000D+00  0.0000000000000D+00  0.0000000000000D+00
388  3.8700000000000D+00  0.0000000000000D+00  0.0000000000000D+00
389  3.8800000000000D+00  0.0000000000000D+00  0.0000000000000D+00
390  3.8900000000000D+00  0.0000000000000D+00  0.0000000000000D+00
391  3.9000000000000D+00  0.0000000000000D+00  0.0000000000000D+00
392  3.9100000000000D+00  0.0000000000000D+00  0.0000000000000D+00
393  3.9200000000000D+00  0.0000000000000D+00  0.0000000000000D+00
394  3.9300000000000D+00  0.0000000000000D+00  0.0000000000000D+00
395  3.9400000000000D+00  0.0000000000000D+00  0.0000000000000D+00
396  3.9500000000000D+00  0.0000000000000D+00  0.0000000000000D+00
397  3.9600000000000D+00  0.0000000000000D+00  0.0000000000000D+00
398  3.9700000000000D+00  0.0000000000000D+00  0.0000000000000D+00
399  3.9800000000000D+00  0.0000000000000D+00  0.0000000000000D+00
400  3.9900000000000D+00  0.0000000000000D+00  0.0000000000000D+00
401  4.0000000000000D+00  0.0000000000000D+00  0.0000000000000D+00
402  4.0100000000000D+00  0.0000000000000D+00  0.0000000000000D+00
403  4.0200000000000D+00  0.0000000000000D+00  0.0000000000000D+00
404  4.0300000000000D+00  0.0000000000000D+00  0.0000000000000D+00
405  4.0400000000000D+00  0.0000000000000D+00  0.0000000000000D+00
406  4.0500000000000D+00  0.0000000000000D+00  0.0000000000000D+00
407  4.0600000000000D+00  0.0000000000000D+00  0.0000000000000D+00
408  4.0700000000000D+00  0.0000000000000D+00  0.0000000000000D+00
409  4.0800000000000D+00  0.0000000000000D+00  0.0000000000000D+00
410  4.0900000000000D+00  0.0000000000000D+00  0.0000000000000D+00
411  4.1000000000000D+00  0.0000000000000D+00  0.0000000000000D+00
412  4.1100000000000D+00  0.0000000000000D+00  0.0000000000000D+00
413  4.1200000000000D+00  0.0000000000000D+00  0.0000000000000D+00
414  4.1300000000000D+00  0.0000000000000D+00  0.0000000000000D+00
415  4.1400000000000D+00  0.0000000000000D+00  0.0000000000000D+00
416  4.1500000000000D+00  0.0000000000000D+00  0.0000000000000D+00
417  4.1600000000000D+00  0.0000000000000D+00  0.0000000000000D+00
418  4.1700000000000D+00  0.0000000000000D+00  0.0000000000000D+00
419  4.1800000000000D+00  0.0000000000000D+00  0.0000000000000D+00
420  4.1900000000000D+00  0.0000000000000D+00  0.0000000000000D+00
421  4.2000000000000D+00  0.0000000000000D+00  0.0000000000000D+00
422  4.2100000000000D+00  0.0000000000000D+00  0.0000000000000D+00
423  4.2200000000000D+00  0.0000000000000D+00  0.0000000000000D+00
424  4.2300000000000D+00  0.0000000000000D+00  0.0000000000000D+00
425  4.2400000000000D+00  0.0000000000000D+00  0.0000000000000D+00
426  4.2500000000000D+00  0.0000000000000D+00  0.0000000000000D+00
427  4.2600000000000D+00  0.0000000000000D+00  0.0000000000000D+00
428  4.2700000000000D+00  0.0000000000000D+00  0.0000000000000D+00
429  4.2800000000000D+00  0.0000000000000D+00  0.0000000000000D+00
430  4.2900000000000D+00  0.0000000000000D+00  0.0000000000000D+00
431  4.3000000000000D+00  0.0000000000000D+00  0.0000000000000D+00
432  4.3100000000000D+00  0.0000000000000D+00  0.0000000000000D+00
433  4.3200000000000D+00  0.0000000000000D+00  0.0000000000000D+00
434  4.3300000000000D+00  0.0000000000000D+00  0.0000000000000D+00
435  4.3400000000000D+00  0.0000000000000D+00  0.0000000000000D+00
436  4.3500000000000D+00  0.0000000000000D+00  0.0000000000000D+00
437  4.3600000000000D+00  0.0000000000000D+00  0.0000000000000D+00
438  4.3700000000000D+00  0.0000000000000D+00  0.0000000000000D+00
439  4.3800000000000D+00  0.0000000000000D+00  0.0000000000000D+00
440  4.3900000000000D+00  0.0000000000000D+00  0.0000000000000D+00
441  4.4000000000000D+00  0.0000000000000D+00  0.0000000000000D+00
442  4.4100000000000D+00  0.0000000000000D+00  0.0000000000000D+00
443  4.4200000000000D+00  0.0000000000000D+00  0.0000000000000D+00