Se    ONCVPSP-3.2.3.1  r_core=   1.81943   1.50330   1.90835
34.0000     16.0000      170504    zatom,zion,pspd
8      11   2     4   600     0    pspcod,pspxc,lmax,lloc,mmax,r2well
5.99000000  5.00000000  0.00000000    rchrg fchrg qchrg
2     2     2     0     0    nproj
1     1           extension_switch
0                         8.9806424989349D+00  1.0120060465929D+00
1  0.0000000000000D+00  3.8107461630688D-11 -1.4008461057813D-11
2  1.0000000000000D-02  3.6667589644010D-02 -1.8529212978148D-02
3  2.0000000000000D-02  7.3327557261819D-02 -3.7040603408630D-02
4  3.0000000000000D-02  1.0997210959645D-01 -5.5516220257279D-02
5  4.0000000000000D-02  1.4659311232184D-01 -7.3937856475572D-02
6  5.0000000000000D-02  1.8318192297964D-01 -9.2286923386576D-02
7  6.0000000000000D-02  2.1972922805470D-01 -1.1054432793289D-01
8  7.0000000000000D-02  2.5622488552375D-01 -1.2869035372431D-01
9  8.0000000000000D-02  2.9265777417379D-01 -1.4670454680892D-01
10  9.0000000000000D-02  3.2901565093968D-01 -1.6456560707384D-01
11  1.0000000000000D-01  3.6528501745430D-01 -1.8225128616070D-01
12  1.1000000000000D-01  4.0145099694079D-01 -1.9973829275622D-01
13  1.2000000000000D-01  4.3749722250404D-01 -2.1700220608993D-01
14  1.3000000000000D-01  4.7340573779927D-01 -2.3401739843911D-01
15  1.4000000000000D-01  5.0915691096922D-01 -2.5075696740529D-01
16  1.5000000000000D-01  5.4472936264889D-01 -2.6719267868729D-01
17  1.6000000000000D-01  5.8009990873843D-01 -2.8329492003259D-01
18  1.7000000000000D-01  6.1524351854200D-01 -2.9903266700211D-01
19  1.8000000000000D-01  6.5013328876243D-01 -3.1437346113283D-01
20  1.9000000000000D-01  6.8474043373136D-01 -3.2928340102835D-01
21  2.0000000000000D-01  7.1903429214020D-01 -3.4372714684969D-01
22  2.1000000000000D-01  7.5298235042221D-01 -3.5766793861713D-01
23  2.2000000000000D-01  7.8655028281894D-01 -3.7106762866869D-01
24  2.3000000000000D-01  8.1970200804736D-01 -3.8388672855251D-01
25  2.4000000000000D-01  8.5239976236716D-01 -3.9608447055879D-01
26  2.5000000000000D-01  8.8460418873270D-01 -4.0761888402185D-01
27  2.6000000000000D-01  9.1627444160030D-01 -4.1844688644524D-01
28  2.7000000000000D-01  9.4736830685158D-01 -4.2852438942241D-01
29  2.8000000000000D-01  9.7784233618630D-01 -4.3780641924235D-01
30  2.9000000000000D-01  1.0076519952359D+00 -4.4624725198462D-01
31  3.0000000000000D-01  1.0367518245518D+00 -4.5380056282125D-01
32  3.1000000000000D-01  1.0650956125291D+00 -4.6041958915426D-01
33  3.2000000000000D-01  1.0926365792450D+00 -4.6605730712857D-01
34  3.3000000000000D-01  1.1193275701071D+00 -4.7066662096904D-01
35  3.4000000000000D-01  1.1451212581414D+00 -4.7420056450060D-01
36  3.5000000000000D-01  1.1699703536839D+00 -4.7661251411966D-01
37  3.6000000000000D-01  1.1938278201857D+00 -4.7785641239575D-01
38  3.7000000000000D-01  1.2166470947964D+00 -4.7788700139409D-01
39  3.8000000000000D-01  1.2383823123547D+00 -4.7666006472316D-01
40  3.9000000000000D-01  1.2589885313855D+00 -4.7413267722789D-01
41  4.0000000000000D-01  1.2784219606895D+00 -4.7026346116745D-01
42  4.1000000000000D-01  1.2966401850978D+00 -4.6501284764004D-01
43  4.2000000000000D-01  1.3136023889716D+00 -4.5834334194318D-01
44  4.3000000000000D-01  1.3292695760339D+00 -4.5021979149057D-01
45  4.4000000000000D-01  1.3436047841442D+00 -4.4060965484316D-01
46  4.5000000000000D-01  1.3565732936557D+00 -4.2948327035567D-01
47  4.6000000000000D-01  1.3681428280354D+00 -4.1681412288978D-01
48  4.7000000000000D-01  1.3782837454759D+00 -4.0257910700236D-01
49  4.8000000000000D-01  1.3869692202827D+00 -3.8675878498226D-01
50  4.9000000000000D-01  1.3941754128905D+00 -3.6933763808241D-01
51  5.0000000000000D-01  1.3998816274290D+00 -3.5030430927659D-01
52  5.1000000000000D-01  1.4040704558430D+00 -3.2965183586136D-01
53  5.2000000000000D-01  1.4067279076562D+00 -3.0737787022536D-01
54  5.3000000000000D-01  1.4078435245591D+00 -2.8348488711921D-01
55  5.4000000000000D-01  1.4074104791019D+00 -2.5798037578139D-01
56  5.5000000000000D-01  1.4054256568708D+00 -2.3087701530748D-01
57  5.6000000000000D-01  1.4018897216359D+00 -2.0219283169387D-01
58  5.7000000000000D-01  1.3968071630637D+00 -1.7195133504082D-01
59  5.8000000000000D-01  1.3901863267003D+00 -1.4018163546542D-01
60  5.9000000000000D-01  1.3820394260410D+00 -1.0691853635055D-01
61  6.0000000000000D-01  1.3723825366182D+00 -7.2202603643832D-02
62  6.1000000000000D-01  1.3612355721459D+00 -3.6080210017184D-02
63  6.2000000000000D-01  1.3486222428763D+00  1.3964471931691D-03
64  6.3000000000000D-01  1.3345699964291D+00  4.0169355229384D-02
65  6.4000000000000D-01  1.3191099414613D+00  8.0174723171894D-02
66  6.5000000000000D-01  1.3022767546515D+00  1.2134304791466D-01
67  6.6000000000000D-01  1.2841085715662D+00  1.6359920940884D-01
68  6.7000000000000D-01  1.2646468620757D+00  2.0686259557433D-01
69  6.8000000000000D-01  1.2439362910716D+00  2.5104725711863D-01
70  6.9000000000000D-01  1.2220245653233D+00  2.9606209233689D-01
71  7.0000000000000D-01  1.1989622673853D+00  3.4181106179424D-01
72  7.1000000000000D-01  1.1748026775378D+00  3.8819343261641D-01
73  7.2000000000000D-01  1.1496015848031D+00  4.3510405193484D-01
74  7.3000000000000D-01  1.1234170881346D+00  4.8243364885161D-01
75  7.4000000000000D-01  1.0963093889223D+00  5.3006916410636D-01
76  7.5000000000000D-01  1.0683405759911D+00  5.7789410644521D-01
77  7.6000000000000D-01  1.0395744043040D+00  6.2578893451062D-01
78  7.7000000000000D-01  1.0100760685933D+00  6.7363146289206D-01
79  7.8000000000000D-01  9.7991197316284D-01  7.2129729080296D-01
80  7.9000000000000D-01  9.4914949909896D-01  7.6866025167935D-01
81  8.0000000000000D-01  9.1785677012717D-01  8.1559288183170D-01
82  8.1000000000000D-01  8.8610241833427D-01  8.6196690612621D-01
83  8.2000000000000D-01  8.5395535095360D-01  9.0765373852350D-01
84  8.3000000000000D-01  8.2148451938081D-01  9.5252499516575D-01
85  8.4000000000000D-01  7.8875869154935D-01  9.9645301757708D-01
86  8.5000000000000D-01  7.5584622875010D-01  1.0393114034273D+00
87  8.6000000000000D-01  7.2281486792790D-01  1.0809755422086D+00
88  8.7000000000000D-01  6.8973151043040D-01  1.1213231530873D+00
89  8.8000000000000D-01  6.5666201812161D-01  1.1602348221225D+00
90  8.9000000000000D-01  6.2367101770485D-01  1.1975945359841D+00
91  9.0000000000000D-01  5.9082171402783D-01  1.2332902092686D+00
92  9.1000000000000D-01  5.5817571306723D-01  1.2672142024826D+00
93  9.2000000000000D-01  5.2579285521153D-01  1.2992638277653D+00
94  9.3000000000000D-01  4.9373105938138D-01  1.3293418394299D+00
95  9.4000000000000D-01  4.6204617844370D-01  1.3573569064387D+00
96  9.5000000000000D-01  4.3079186629440D-01  1.3832240639759D+00
97  9.6000000000000D-01  4.0001945690117D-01  1.4068651413499D+00
98  9.7000000000000D-01  3.6977785551681D-01  1.4282091635452D+00
99  9.8000000000000D-01  3.4011344219232D-01  1.4471927238492D+00
100  9.9000000000000D-01  3.1106998764115D-01  1.4637603251000D+00
101  1.0000000000000D+00  2.8268858142976D-01  1.4778646872426D+00
102  1.0100000000000D+00  2.5500757239625D-01  1.4894670190417D+00
103  1.0200000000000D+00  2.2806252113290D-01  1.4985372519582D+00
104  1.0300000000000D+00  2.0188616429908D-01  1.5050542344022D+00
105  1.0400000000000D+00  1.7650839047463D-01  1.5090058847600D+00
106  1.0500000000000D+00  1.5195622720723D-01  1.5103893018161D+00
107  1.0600000000000D+00  1.2825383885723D-01  1.5092108314143D+00
108  1.0700000000000D+00  1.0542253480069D-01  1.5054860884350D+00
109  1.0800000000000D+00  8.3480787512507D-02  1.4992399334056D+00
110  1.0900000000000D+00  6.2444260017936D-02  1.4905064033271D+00
111  1.1000000000000D+00  4.2325842176582D-02  1.4793285965374D+00
112  1.1100000000000D+00  2.3135695241509D-02  1.4657585117214D+00
113  1.1200000000000D+00  4.8813041233530D-03  1.4498568413924D+00
114  1.1300000000000D+00 -1.2432463221087D-02  1.4316927204855D+00
115  1.1400000000000D+00 -2.8803289857214D-02  1.4113434309333D+00
116  1.1500000000000D+00 -4.4231337975374D-02  1.3888940633840D+00
117  1.1600000000000D+00 -5.8719171599936D-02  1.3644371374205D+00
118  1.1700000000000D+00 -7.2271674461812D-02  1.3380721819502D+00
119  1.1800000000000D+00 -8.4895963573897D-02  1.3099052776427D+00
120  1.1900000000000D+00 -9.6601299022905D-02  1.2800485635512D+00
121  1.2000000000000D+00 -1.0739899047886D-01  1.2486197101937D+00
122  1.2100000000000D+00 -1.1730230087861D-01  1.2157413616894D+00
123  1.2200000000000D+00 -1.2632634771406D-01  1.1815405496756D+00
124  1.2300000000000D+00 -1.3448800233064D-01  1.1461480818775D+00
125  1.2400000000000D+00 -1.4180578759775D-01  1.1096979084215D+00
126  1.2500000000000D+00 -1.4829977427254D-01  1.0723264691113D+00
127  1.2600000000000D+00 -1.5399147635418D-01  1.0341720249679D+00
128  1.2700000000000D+00 -1.5890374568745D-01  9.9537397746985D-01
129  1.2800000000000D+00 -1.6306066602136D-01  9.5607217902343D-01
130  1.2900000000000D+00 -1.6648744671622D-01  9.1640623820238D-01
131  1.3000000000000D+00 -1.6921031625458D-01  8.7651482338345D-01
132  1.3100000000000D+00 -1.7125641565951D-01  8.3653496839159D-01
133  1.3200000000000D+00 -1.7265369192732D-01  7.9660138375330D-01
134  1.3300000000000D+00 -1.7343079153648D-01  7.5684577718410D-01
135  1.3400000000000D+00 -1.7361695406572D-01  7.1739618676609D-01
136  1.3500000000000D+00 -1.7324190596328D-01  6.7837633034358D-01
137  1.3600000000000D+00 -1.7233575446184D-01  6.3990497449609D-01
138  1.3700000000000D+00 -1.7092888164456D-01  6.0209532619887D-01
139  1.3800000000000D+00 -1.6905183865412D-01  5.6505445053502D-01
140  1.3900000000000D+00 -1.6673524002943D-01  5.2888271715349D-01
141  1.4000000000000D+00 -1.6400965816978D-01  4.9367327836749D-01
142  1.4100000000000D+00 -1.6090551790496D-01  4.5951158161982D-01
143  1.4200000000000D+00 -1.5745299121016D-01  4.2647491830854D-01
144  1.4300000000000D+00 -1.5368189204465D-01  3.9463201170065D-01
145  1.4400000000000D+00 -1.4962157139029D-01  3.6404264536426D-01
146  1.4500000000000D+00 -1.4530081253757D-01  3.3475733406571D-01
147  1.4600000000000D+00 -1.4074772576135D-01  3.0681703405273D-01
148  1.4700000000000D+00 -1.3598964660304D-01  2.8025291457945D-01
149  1.4800000000000D+00 -1.3105302958101D-01  2.5508614773766D-01
150  1.4900000000000D+00 -1.2596337847209D-01  2.3132792725137D-01
151  1.5000000000000D+00 -1.2074502869186D-01  2.0897878322620D-01
152  1.5100000000000D+00 -1.1542117424338D-01  1.8802916716501D-01
153  1.5200000000000D+00 -1.1001414807660D-01  1.6846141408833D-01
154  1.5300000000000D+00 -1.0454564882397D-01  1.5025126101858D-01
155  1.5400000000000D+00 -9.9037081547538D-02  1.3336988363357D-01
156  1.5500000000000D+00 -9.3509523423078D-02  1.1778404572013D-01
157  1.5600000000000D+00 -8.7983637709592D-02  1.0345596595742D-01
158  1.5700000000000D+00 -8.2479699984022D-02  9.0343876991559D-02
159  1.5800000000000D+00 -7.7017558616952D-02  7.8402259207074D-02
160  1.5900000000000D+00 -7.1616615602956D-02  6.7582227878211D-02
161  1.6000000000000D+00 -6.6295798553968D-02  5.7831908395000D-02
162  1.6100000000000D+00 -6.1073532088516D-02  4.9096839887312D-02
163  1.6200000000000D+00 -5.5967707557186D-02  4.1320396320754D-02
164  1.6300000000000D+00 -5.0995651360237D-02  3.4444221891676D-02
165  1.6400000000000D+00 -4.6174091990714D-02  2.8408676284318D-02
166  1.6500000000000D+00 -4.1519126038103D-02  2.3153286255776D-02
167  1.6600000000000D+00 -3.7046183316061D-02  1.8617199195526D-02
168  1.6700000000000D+00 -3.2769991371604D-02  1.4739635299742D-02
169  1.6800000000000D+00 -2.8704539571138D-02  1.1460333977959D-02
170  1.6900000000000D+00 -2.4863043038984D-02  8.7199915909992D-03
171  1.7000000000000D+00 -2.1257906687470D-02  6.4606861174366D-03
172  1.7100000000000D+00 -1.7900689604237D-02  4.6262864013862D-03
173  1.7200000000000D+00 -1.4802070092099D-02  3.1628417036188D-03
174  1.7300000000000D+00 -1.1971811588442D-02  2.0189497014622D-03
175  1.7400000000000D+00 -9.4187298035091D-03  1.1460990230225D-03
176  1.7500000000000D+00 -7.1506612597657D-03  4.9898475384847D-04
177  1.7600000000000D+00 -5.1749507361107D-03  3.4871443873833D-05
178  1.7700000000000D+00 -3.4966218958165D-03 -2.8294052942048D-04
179  1.7800000000000D+00 -2.1181530231758D-03 -4.8081538255218D-04
180  1.7900000000000D+00 -1.0458756187201D-03 -5.9680788459027D-04
181  1.8000000000000D+00 -2.8778816274136D-04 -6.9536663900977D-04
182  1.8100000000000D+00  1.5944958082829D-04 -7.8210905064583D-04
183  1.8200000000000D+00  3.0514902024467D-04 -7.1131080657728D-04
184  1.8300000000000D+00  1.9533343752946D-04 -3.8165807557372D-04
185  1.8400000000000D+00  1.8855473088461D-05 -3.4467434617127D-05
186  1.8500000000000D+00 -4.3667458957990D-05  7.7554642388481D-05
187  1.8600000000000D+00 -1.6698295874414D-05  2.8919951436554D-05
188  1.8700000000000D+00  8.1590797180535D-06 -1.5297240105822D-05
189  1.8800000000000D+00  6.2623421610660D-06 -1.1600793378399D-05
190  1.8900000000000D+00 -5.3895281746159D-07  1.2782512190558D-06
191  1.9000000000000D+00 -7.6849203554674D-07  1.8226565470034D-06
192  1.9100000000000D+00  0.0000000000000D+00  0.0000000000000D+00
193  1.9200000000000D+00  0.0000000000000D+00  0.0000000000000D+00
194  1.9300000000000D+00  0.0000000000000D+00  0.0000000000000D+00
195  1.9400000000000D+00  0.0000000000000D+00  0.0000000000000D+00
196  1.9500000000000D+00  0.0000000000000D+00  0.0000000000000D+00
197  1.9600000000000D+00  0.0000000000000D+00  0.0000000000000D+00
198  1.9700000000000D+00  0.0000000000000D+00  0.0000000000000D+00
199  1.9800000000000D+00  0.0000000000000D+00  0.0000000000000D+00
200  1.9900000000000D+00  0.0000000000000D+00  0.0000000000000D+00
201  2.0000000000000D+00  0.0000000000000D+00  0.0000000000000D+00
202  2.0100000000000D+00  0.0000000000000D+00  0.0000000000000D+00
203  2.0200000000000D+00  0.0000000000000D+00  0.0000000000000D+00
204  2.0300000000000D+00  0.0000000000000D+00  0.0000000000000D+00
205  2.0400000000000D+00  0.0000000000000D+00  0.0000000000000D+00
206  2.0500000000000D+00  0.0000000000000D+00  0.0000000000000D+00
207  2.0600000000000D+00  0.0000000000000D+00  0.0000000000000D+00
208  2.0700000000000D+00  0.0000000000000D+00  0.0000000000000D+00
209  2.0800000000000D+00  0.0000000000000D+00  0.0000000000000D+00
210  2.0900000000000D+00  0.0000000000000D+00  0.0000000000000D+00
211  2.1000000000000D+00  0.0000000000000D+00  0.0000000000000D+00
212  2.1100000000000D+00  0.0000000000000D+00  0.0000000000000D+00
213  2.1200000000000D+00  0.0000000000000D+00  0.0000000000000D+00
214  2.1300000000000D+00  0.0000000000000D+00  0.0000000000000D+00
215  2.1400000000000D+00  0.0000000000000D+00  0.0000000000000D+00
216  2.1500000000000D+00  0.0000000000000D+00  0.0000000000000D+00
217  2.1600000000000D+00  0.0000000000000D+00  0.0000000000000D+00
218  2.1700000000000D+00  0.0000000000000D+00  0.0000000000000D+00
219  2.1800000000000D+00  0.0000000000000D+00  0.0000000000000D+00
220  2.1900000000000D+00  0.0000000000000D+00  0.0000000000000D+00
221  2.2000000000000D+00  0.0000000000000D+00  0.0000000000000D+00
222  2.2100000000000D+00  0.0000000000000D+00  0.0000000000000D+00
223  2.2200000000000D+00  0.0000000000000D+00  0.0000000000000D+00
224  2.2300000000000D+00  0.0000000000000D+00  0.0000000000000D+00
225  2.2400000000000D+00  0.0000000000000D+00  0.0000000000000D+00
226  2.2500000000000D+00  0.0000000000000D+00  0.0000000000000D+00
227  2.2600000000000D+00  0.0000000000000D+00  0.0000000000000D+00
228  2.2700000000000D+00  0.0000000000000D+00  0.0000000000000D+00
229  2.2800000000000D+00  0.0000000000000D+00  0.0000000000000D+00
230  2.2900000000000D+00  0.0000000000000D+00  0.0000000000000D+00
231  2.3000000000000D+00  0.0000000000000D+00  0.0000000000000D+00
232  2.3100000000000D+00  0.0000000000000D+00  0.0000000000000D+00
233  2.3200000000000D+00  0.0000000000000D+00  0.0000000000000D+00
234  2.3300000000000D+00  0.0000000000000D+00  0.0000000000000D+00
235  2.3400000000000D+00  0.0000000000000D+00  0.0000000000000D+00
236  2.3500000000000D+00  0.0000000000000D+00  0.0000000000000D+00
237  2.3600000000000D+00  0.0000000000000D+00  0.0000000000000D+00
238  2.3700000000000D+00  0.0000000000000D+00  0.0000000000000D+00
239  2.3800000000000D+00  0.0000000000000D+00  0.0000000000000D+00
240  2.3900000000000D+00  0.0000000000000D+00  0.0000000000000D+00
241  2.4000000000000D+00  0.0000000000000D+00  0.0000000000000D+00
242  2.4100000000000D+00  0.0000000000000D+00  0.0000000000000D+00
243  2.4200000000000D+00  0.0000000000000D+00  0.0000000000000D+00
244  2.4300000000000D+00  0.0000000000000D+00  0.0000000000000D+00
245  2.4400000000000D+00  0.0000000000000D+00  0.0000000000000D+00
246  2.4500000000000D+00  0.0000000000000D+00  0.0000000000000D+00
247  2.4600000000000D+00  0.0000000000000D+00  0.0000000000000D+00
248  2.4700000000000D+00  0.0000000000000D+00  0.0000000000000D+00
249  2.4800000000000D+00  0.0000000000000D+00  0.0000000000000D+00
250  2.4900000000000D+00  0.0000000000000D+00  0.0000000000000D+00
251  2.5000000000000D+00  0.0000000000000D+00  0.0000000000000D+00
252  2.5100000000000D+00  0.0000000000000D+00  0.0000000000000D+00
253  2.5200000000000D+00  0.0000000000000D+00  0.0000000000000D+00
254  2.5300000000000D+00  0.0000000000000D+00  0.0000000000000D+00
255  2.5400000000000D+00  0.0000000000000D+00  0.0000000000000D+00
256  2.5500000000000D+00  0.0000000000000D+00  0.0000000000000D+00
257  2.5600000000000D+00  0.0000000000000D+00  0.0000000000000D+00
258  2.5700000000000D+00  0.0000000000000D+00  0.0000000000000D+00
259  2.5800000000000D+00  0.0000000000000D+00  0.0000000000000D+00
260  2.5900000000000D+00  0.0000000000000D+00  0.0000000000000D+00
261  2.6000000000000D+00  0.0000000000000D+00  0.0000000000000D+00
262  2.6100000000000D+00  0.0000000000000D+00  0.0000000000000D+00
263  2.6200000000000D+00  0.0000000000000D+00  0.0000000000000D+00
264  2.6300000000000D+00  0.0000000000000D+00  0.0000000000000D+00
265  2.6400000000000D+00  0.0000000000000D+00  0.0000000000000D+00
266  2.6500000000000D+00  0.0000000000000D+00  0.0000000000000D+00
267  2.6600000000000D+00  0.0000000000000D+00  0.0000000000000D+00
268  2.6700000000000D+00  0.0000000000000D+00  0.0000000000000D+00
269  2.6800000000000D+00  0.0000000000000D+00  0.0000000000000D+00
270  2.6900000000000D+00  0.0000000000000D+00  0.0000000000000D+00
271  2.7000000000000D+00  0.0000000000000D+00  0.0000000000000D+00
272  2.7100000000000D+00  0.0000000000000D+00  0.0000000000000D+00
273  2.7200000000000D+00  0.0000000000000D+00  0.0000000000000D+00
274  2.7300000000000D+00  0.0000000000000D+00  0.0000000000000D+00
275  2.7400000000000D+00  0.0000000000000D+00  0.0000000000000D+00
276  2.7500000000000D+00  0.0000000000000D+00  0.0000000000000D+00
277  2.7600000000000D+00  0.0000000000000D+00  0.0000000000000D+00
278  2.7700000000000D+00  0.0000000000000D+00  0.0000000000000D+00
279  2.7800000000000D+00  0.0000000000000D+00  0.0000000000000D+00
280  2.7900000000000D+00  0.0000000000000D+00  0.0000000000000D+00
281  2.8000000000000D+00  0.0000000000000D+00  0.0000000000000D+00
282  2.8100000000000D+00  0.0000000000000D+00  0.0000000000000D+00
283  2.8200000000000D+00  0.0000000000000D+00  0.0000000000000D+00
284  2.8300000000000D+00  0.0000000000000D+00  0.0000000000000D+00
285  2.8400000000000D+00  0.0000000000000D+00  0.0000000000000D+00
286  2.8500000000000D+00  0.0000000000000D+00  0.0000000000000D+00
287  2.8600000000000D+00  0.0000000000000D+00  0.0000000000000D+00
288  2.8700000000000D+00  0.0000000000000D+00  0.0000000000000D+00
289  2.8800000000000D+00  0.0000000000000D+00  0.0000000000000D+00
290  2.8900000000000D+00  0.0000000000000D+00  0.0000000000000D+00
291  2.9000000000000D+00  0.0000000000000D+00  0.0000000000000D+00
292  2.9100000000000D+00  0.0000000000000D+00  0.0000000000000D+00
293  2.9200000000000D+00  0.0000000000000D+00  0.0000000000000D+00
294  2.9300000000000D+00  0.0000000000000D+00  0.0000000000000D+00
295  2.9400000000000D+00  0.0000000000000D+00  0.0000000000000D+00
296  2.9500000000000D+00  0.0000000000000D+00  0.0000000000000D+00
297  2.9600000000000D+00  0.0000000000000D+00  0.0000000000000D+00
298  2.9700000000000D+00  0.0000000000000D+00  0.0000000000000D+00
299  2.9800000000000D+00  0.0000000000000D+00  0.0000000000000D+00
300  2.9900000000000D+00  0.0000000000000D+00  0.0000000000000D+00
301  3.0000000000000D+00  0.0000000000000D+00  0.0000000000000D+00
302  3.0100000000000D+00  0.0000000000000D+00  0.0000000000000D+00
303  3.0200000000000D+00  0.0000000000000D+00  0.0000000000000D+00
304  3.0300000000000D+00  0.0000000000000D+00  0.0000000000000D+00
305  3.0400000000000D+00  0.0000000000000D+00  0.0000000000000D+00
306  3.0500000000000D+00  0.0000000000000D+00  0.0000000000000D+00
307  3.0600000000000D+00  0.0000000000000D+00  0.0000000000000D+00
308  3.0700000000000D+00  0.0000000000000D+00  0.0000000000000D+00
309  3.0800000000000D+00  0.0000000000000D+00  0.0000000000000D+00
310  3.0900000000000D+00  0.0000000000000D+00  0.0000000000000D+00
311  3.1000000000000D+00  0.0000000000000D+00  0.0000000000000D+00
312  3.1100000000000D+00  0.0000000000000D+00  0.0000000000000D+00
313  3.1200000000000D+00  0.0000000000000D+00  0.0000000000000D+00
314  3.1300000000000D+00  0.0000000000000D+00  0.0000000000000D+00
315  3.1400000000000D+00  0.0000000000000D+00  0.0000000000000D+00
316  3.1500000000000D+00  0.0000000000000D+00  0.0000000000000D+00
317  3.1600000000000D+00  0.0000000000000D+00  0.0000000000000D+00
318  3.1700000000000D+00  0.0000000000000D+00  0.0000000000000D+00
319  3.1800000000000D+00  0.0000000000000D+00  0.0000000000000D+00
320  3.1900000000000D+00  0.0000000000000D+00  0.0000000000000D+00
321  3.2000000000000D+00  0.0000000000000D+00  0.0000000000000D+00
322  3.2100000000000D+00  0.0000000000000D+00  0.0000000000000D+00
323  3.2200000000000D+00  0.0000000000000D+00  0.0000000000000D+00
324  3.2300000000000D+00  0.0000000000000D+00  0.0000000000000D+00
325  3.2400000000000D+00  0.0000000000000D+00  0.0000000000000D+00
326  3.2500000000000D+00  0.0000000000000D+00  0.0000000000000D+00
327  3.2600000000000D+00  0.0000000000000D+00  0.0000000000000D+00
328  3.2700000000000D+00  0.0000000000000D+00  0.0000000000000D+00
329  3.2800000000000D+00  0.0000000000000D+00  0.0000000000000D+00
330  3.2900000000000D+00  0.0000000000000D+00  0.0000000000000D+00
331  3.3000000000000D+00  0.0000000000000D+00  0.0000000000000D+00
332  3.3100000000000D+00  0.0000000000000D+00  0.0000000000000D+00
333  3.3200000000000D+00  0.0000000000000D+00  0.0000000000000D+00
334  3.3300000000000D+00  0.0000000000000D+00  0.0000000000000D+00
335  3.3400000000000D+00  0.0000000000000D+00  0.0000000000000D+00
336  3.3500000000000D+00  0.0000000000000D+00  0.0000000000000D+00
337  3.3600000000000D+00  0.0000000000000D+00  0.0000000000000D+00
338  3.3700000000000D+00  0.0000000000000D+00  0.0000000000000D+00
339  3.3800000000000D+00  0.0000000000000D+00  0.0000000000000D+00
340  3.3900000000000D+00  0.0000000000000D+00  0.0000000000000D+00
341  3.4000000000000D+00  0.0000000000000D+00  0.0000000000000D+00
342  3.4100000000000D+00  0.0000000000000D+00  0.0000000000000D+00
343  3.4200000000000D+00  0.0000000000000D+00  0.0000000000000D+00
344  3.4300000000000D+00  0.0000000000000D+00  0.0000000000000D+00
345  3.4400000000000D+00  0.0000000000000D+00  0.0000000000000D+00
346  3.4500000000000D+00  0.0000000000000D+00  0.0000000000000D+00
347  3.4600000000000D+00  0.0000000000000D+00  0.0000000000000D+00
348  3.4700000000000D+00  0.0000000000000D+00  0.0000000000000D+00
349  3.4800000000000D+00  0.0000000000000D+00  0.0000000000000D+00
350  3.4900000000000D+00  0.0000000000000D+00  0.0000000000000D+00
351  3.5000000000000D+00  0.0000000000000D+00  0.0000000000000D+00
352  3.5100000000000D+00  0.0000000000000D+00  0.0000000000000D+00
353  3.5200000000000D+00  0.0000000000000D+00  0.0000000000000D+00
354  3.5300000000000D+00  0.0000000000000D+00  0.0000000000000D+00
355  3.5400000000000D+00  0.0000000000000D+00  0.0000000000000D+00
356  3.5500000000000D+00  0.0000000000000D+00  0.0000000000000D+00
357  3.5600000000000D+00  0.0000000000000D+00  0.0000000000000D+00
358  3.5700000000000D+00  0.0000000000000D+00  0.0000000000000D+00
359  3.5800000000000D+00  0.0000000000000D+00  0.0000000000000D+00
360  3.5900000000000D+00  0.0000000000000D+00  0.0000000000000D+00
361  3.6000000000000D+00  0.0000000000000D+00  0.0000000000000D+00
362  3.6100000000000D+00  0.0000000000000D+00  0.0000000000000D+00
363  3.6200000000000D+00  0.0000000000000D+00  0.0000000000000D+00
364  3.6300000000000D+00  0.0000000000000D+00  0.0000000000000D+00
365  3.6400000000000D+00  0.0000000000000D+00  0.0000000000000D+00
366  3.6500000000000D+00  0.0000000000000D+00  0.0000000000000D+00
367  3.6600000000000D+00  0.0000000000000D+00  0.0000000000000D+00
368  3.6700000000000D+00  0.0000000000000D+00  0.0000000000000D+00
369  3.6800000000000D+00  0.0000000000000D+00  0.0000000000000D+00
370  3.6900000000000D+00  0.0000000000000D+00  0.0000000000000D+00
371  3.7000000000000D+00  0.0000000000000D+00  0.0000000000000D+00
372  3.7100000000000D+00  0.0000000000000D+00  0.0000000000000D+00
373  3.7200000000000D+00  0.0000000000000D+00  0.0000000000000D+00
374  3.7300000000000D+00  0.0000000000000D+00  0.0000000000000D+00
375  3.7400000000000D+00  0.0000000000000D+00  0.0000000000000D+00
376  3.7500000000000D+00  0.0000000000000D+00  0.0000000000000D+00
377  3.7600000000000D+00  0.0000000000000D+00  0.0000000000000D+00
378  3.7700000000000D+00  0.0000000000000D+00  0.0000000000000D+00
379  3.7800000000000D+00  0.0000000000000D+00  0.0000000000000D+00
380  3.7900000000000D+00  0.0000000000000D+00  0.0000000000000D+00
381  3.8000000000000D+00  0.0000000000000D+00  0.0000000000000D+00
382  3.8100000000000D+00  0.0000000000000D+00  0.0000000000000D+00
383  3.8200000000000D+00  0.0000000000000D+00  0.0000000000000D+00
384  3.8300000000000D+00  0.0000000000000D+00  0.0000000000000D+00
385  3.8400000000000D+00  0.0000000000000D+00  0.0000000000000D+00
386  3.8500000000000D+00  0.0000000000000D+00  0.0000000000000D+00
387  3.8600000000000D+00  0.0000000000000D+00  0.0000000000000D+00
388  3.8700000000000D+00  0.0000000000000D+00  0.0000000000000D+00
389  3.8800000000000D+00  0.0000000000000D+00  0.0000000000000D+00
390  3.8900000000000D+00  0.0000000000000D+00  0.0000000000000D+00
391  3.9000000000000D+00  0.0000000000000D+00  0.0000000000000D+00
392  3.9100000000000D+00  0.0000000000000D+00  0.0000000000000D+00
393  3.9200000000000D+00  0.0000000000000D+00  0.0000000000000D+00
394  3.9300000000000D+00  0.0000000000000D+00  0.0000000000000D+00
395  3.9400000000000D+00  0.0000000000000D+00  0.0000000000000D+00
396  3.9500000000000D+00  0.0000000000000D+00  0.0000000000000D+00
397  3.9600000000000D+00  0.0000000000000D+00  0.0000000000000D+00
398  3.9700000000000D+00  0.0000000000000D+00  0.0000000000000D+00
399  3.9800000000000D+00  0.0000000000000D+00  0.0000000000000D+00
400  3.9900000000000D+00  0.0000000000000D+00  0.0000000000000D+00
401  4.0000000000000D+00  0.0000000000000D+00  0.0000000000000D+00
402  4.0100000000000D+00  0.0000000000000D+00  0.0000000000000D+00
403  4.0200000000000D+00  0.0000000000000D+00  0.0000000000000D+00
404  4.0300000000000D+00  0.0000000000000D+00  0.0000000000000D+00
405  4.0400000000000D+00  0.0000000000000D+00  0.0000000000000D+00
406  4.0500000000000D+00  0.0000000000000D+00  0.0000000000000D+00
407  4.0600000000000D+00  0.0000000000000D+00  0.0000000000000D+00
408  4.0700000000000D+00  0.0000000000000D+00  0.0000000000000D+00
409  4.0800000000000D+00  0.0000000000000D+00  0.0000000000000D+00
410  4.0900000000000D+00  0.0000000000000D+00  0.0000000000000D+00
411  4.1000000000000D+00  0.0000000000000D+00  0.0000000000000D+00
412  4.1100000000000D+00  0.0000000000000D+00  0.0000000000000D+00
413  4.1200000000000D+00  0.0000000000000D+00  0.0000000000000D+00
414  4.1300000000000D+00  0.0000000000000D+00  0.0000000000000D+00
415  4.1400000000000D+00  0.0000000000000D+00  0.0000000000000D+00
416  4.1500000000000D+00  0.0000000000000D+00  0.0000000000000D+00
417  4.1600000000000D+00  0.0000000000000D+00  0.0000000000000D+00
418  4.1700000000000D+00  0.0000000000000D+00  0.0000000000000D+00
419  4.1800000000000D+00  0.0000000000000D+00  0.0000000000000D+00
420  4.1900000000000D+00  0.0000000000000D+00  0.0000000000000D+00
421  4.2000000000000D+00  0.0000000000000D+00  0.0000000000000D+00
422  4.2100000000000D+00  0.0000000000000D+00  0.0000000000000D+00
423  4.2200000000000D+00  0.0000000000000D+00  0.0000000000000D+00
424  4.2300000000000D+00  0.0000000000000D+00  0.0000000000000D+00
425  4.2400000000000D+00  0.0000000000000D+00  0.0000000000000D+00
426  4.2500000000000D+00  0.0000000000000D+00  0.0000000000000D+00
427  4.2600000000000D+00  0.0000000000000D+00  0.0000000000000D+00
428  4.2700000000000D+00  0.0000000000000D+00  0.0000000000000D+00
429  4.2800000000000D+00  0.0000000000000D+00  0.0000000000000D+00
430  4.2900000000000D+00  0.0000000000000D+00  0.0000000000000D+00
431  4.3000000000000D+00  0.0000000000000D+00  0.0000000000000D+00
432  4.3100000000000D+00  0.0000000000000D+00  0.0000000000000D+00
433  4.3200000000000D+00  0.0000000000000D+00  0.0000000000000D+00
434  4.3300000000000D+00  0.0000000000000D+00  0.0000000000000D+00
435  4.3400000000000D+00  0.0000000000000D+00  0.0000000000000D+00
436  4.3500000000000D+00  0.0000000000000D+00  0.0000000000000D+00
437  4.3600000000000D+00  0.0000000000000D+00  0.0000000000000D+00
438  4.3700000000000D+00  0.0000000000000D+00  0.0000000000000D+00
439  4.3800000000000D+00  0.0000000000000D+00  0.0000000000000D+00
440  4.3900000000000D+00  0.0000000000000D+00  0.0000000000000D+00
441  4.4000000000000D+00  0.0000000000000D+00  0.0000000000000D+00
442  4.4100000000000D+00  0.0000000000000D+00  0.0000000000000D+00
443  4.4200000000000D+00  0.0000000000000D+00  0.0000000000000D+00