Zr    ONCVPSP-3.2.3.1  r_core=   1.56507   1.56507   1.51006
40.0000     12.0000      170510    zatom,zion,pspd
8      11   2     4   600     0    pspcod,pspxc,lmax,lloc,mmax,r2well
5.99000000  5.00000000  0.00000000    rchrg fchrg qchrg
2     2     2     0     0    nproj
1     1           extension_switch
0                         1.0621765718668D+01  8.9880508871646D-01
1  0.0000000000000D+00 -2.0984181059447D-10  1.0275461315157D-09
2  1.0000000000000D-02  5.6228127092672D-02 -3.2324371404682D-02
3  2.0000000000000D-02  1.1236253025658D-01 -6.4461595244351D-02
4  3.0000000000000D-02  1.6830987220355D-01 -9.6226198457525D-02
5  4.0000000000000D-02  2.2397758480598D-01 -1.2743603626752D-01
6  5.0000000000000D-02  2.7927424342992D-01 -1.5791390478417D-01
7  6.0000000000000D-02  3.3410992912247D-01 -1.8748909249557D-01
8  7.0000000000000D-02  3.8839657485440D-01 -2.1599885150126D-01
9  8.0000000000000D-02  4.4204829222907D-01 -2.4328977036603D-01
10  9.0000000000000D-02  4.9498167532563D-01 -2.6921903173411D-01
11  1.0000000000000D-01  5.4711607864610D-01 -2.9365553932139D-01
12  1.1000000000000D-01  5.9837386647778D-01 -3.1648090058045D-01
13  1.2000000000000D-01  6.4868063135986D-01 -3.3759025318867D-01
14  1.3000000000000D-01  6.9796537975222D-01 -3.5689292552034D-01
15  1.4000000000000D-01  7.4616068343901D-01 -3.7431292340515D-01
16  1.5000000000000D-01  7.9320279565471D-01 -3.8978923771993D-01
17  1.6000000000000D-01  8.3903173138969D-01 -4.0327596968161D-01
18  1.7000000000000D-01  8.8359131181041D-01 -4.1474227307605D-01
19  1.8000000000000D-01  9.2682917320920D-01 -4.2417211504188D-01
20  1.9000000000000D-01  9.6869674137445D-01 -4.3156385939936D-01
21  2.0000000000000D-01  1.0091491727376D+00 -4.3692967884180D-01
22  2.1000000000000D-01  1.0481452641021D+00 -4.4029480456217D-01
23  2.2000000000000D-01  1.0856473331869D+00 -4.4169662404064D-01
24  2.3000000000000D-01  1.1216210726127D+00 -4.4118363974211D-01
25  2.4000000000000D-01  1.1560353803279D+00 -4.3881430334091D-01
26  2.5000000000000D-01  1.1888621697917D+00 -4.3465574177727D-01
27  2.6000000000000D-01  1.2200761635193D+00 -4.2878239293416D-01
28  2.7000000000000D-01  1.2496546738253D+00 -4.2127456998552D-01
29  2.8000000000000D-01  1.2775773747886D+00 -4.1221697448752D-01
30  2.9000000000000D-01  1.3038260695900D+00 -4.0169717905147D-01
31  3.0000000000000D-01  1.3283844574496D+00 -3.8980410093627D-01
32  3.1000000000000D-01  1.3512379044085D+00 -3.7662648812394D-01
33  3.2000000000000D-01  1.3723732221563D+00 -3.6225143938722D-01
34  3.3000000000000D-01  1.3917784590072D+00 -3.4676297952223D-01
35  3.4000000000000D-01  1.4094427069702D+00 -3.3024071030487D-01
36  3.5000000000000D-01  1.4253559286439D+00 -3.1275855684065D-01
37  3.6000000000000D-01  1.4395088073985D+00 -2.9438362782482D-01
38  3.7000000000000D-01  1.4518926239901D+00 -2.7517520682351D-01
39  3.8000000000000D-01  1.4624991623813D+00 -2.5518389004464D-01
40  3.9000000000000D-01  1.4713206471343D+00 -2.3445088420625D-01
41  4.0000000000000D-01  1.4783497142923D+00 -2.1300747605286D-01
42  4.1000000000000D-01  1.4835794171801D+00 -1.9087468284089D-01
43  4.2000000000000D-01  1.4870032680451D+00 -1.6806309073908D-01
44  4.3000000000000D-01  1.4886153159284D+00 -1.4457288559725D-01
45  4.4000000000000D-01  1.4884102606059D+00 -1.2039407795861D-01
46  4.5000000000000D-01  1.4863836018877D+00 -9.5506921557349D-02
47  4.6000000000000D-01  1.4825318230053D+00 -6.9882521888404D-02
48  4.7000000000000D-01  1.4768526062690D+00 -4.3483628793621D-02
49  4.8000000000000D-01  1.4693450786422D+00 -1.6265604411193D-02
50  4.9000000000000D-01  1.4600100843633D+00  1.1822444682463D-02
51  5.0000000000000D-01  1.4488504812603D+00  4.0836384714815D-02
52  5.1000000000000D-01  1.4358714569524D+00  7.0835637180962D-02
53  5.2000000000000D-01  1.4210808607177D+00  1.0188164445289D-01
54  5.3000000000000D-01  1.4044895464485D+00  1.3403623834138D-01
55  5.4000000000000D-01  1.3861117217973D+00  1.6735993306983D-01
56  5.5000000000000D-01  1.3659652983700D+00  2.0191016551844D-01
57  5.6000000000000D-01  1.3440722376244D+00  2.3773950672052D-01
58  5.7000000000000D-01  1.3204588870108D+00  2.7489386942323D-01
59  5.8000000000000D-01  1.2951563008291D+00  3.1341073704780D-01
60  5.9000000000000D-01  1.2682005402922D+00  3.5331743958914D-01
61  6.0000000000000D-01  1.2396329473657D+00  3.9462950187392D-01
62  6.1000000000000D-01  1.2095003871110D+00  4.3734908914700D-01
63  6.2000000000000D-01  1.1778554534833D+00  4.8146357418146D-01
64  6.3000000000000D-01  1.1447566338341D+00  5.2694424900486D-01
65  6.4000000000000D-01  1.1102684277256D+00  5.7374520293188D-01
66  6.5000000000000D-01  1.0744614160966D+00  6.2180238687432D-01
67  6.6000000000000D-01  1.0374122773021D+00  6.7103288191028D-01
68  6.7000000000000D-01  9.9920374709060D-01  7.2133438784788D-01
69  6.8000000000000D-01  9.5992452017299D-01  7.7258494501698D-01
70  6.9000000000000D-01  9.1966909167287D-01  8.2464289983124D-01
71  7.0000000000000D-01  8.7853753741152D-01  8.7734712178593D-01
72  7.1000000000000D-01  8.3663523268154D-01  9.3051747653669D-01
73  7.2000000000000D-01  7.9407250987906D-01  9.8395555656888D-01
74  7.3000000000000D-01  7.5096425609219D-01  1.0374456677740D+00
75  7.4000000000000D-01  7.0742945247584D-01  1.0907560670099D+00
76  7.5000000000000D-01  6.6359065796765D-01  1.1436404425011D+00
77  7.6000000000000D-01  6.1957344061029D-01  1.1958396257582D+00
78  7.7000000000000D-01  5.7550576043378D-01  1.2470835205978D+00
79  7.8000000000000D-01  5.3151730850413D-01  1.2970932318924D+00
80  7.9000000000000D-01  4.8773880735851D-01  1.3455833738778D+00
81  8.0000000000000D-01  4.4430127861152D-01  1.3922645352588D+00
82  8.1000000000000D-01  4.0133528402422D-01  1.4368458759935D+00
83  8.2000000000000D-01  3.5897014677158D-01  1.4790378285624D+00
84  8.3000000000000D-01  3.1733316001710D-01  1.5185548747381D+00
85  8.4000000000000D-01  2.7654879020147D-01  1.5551183674213D+00
86  8.5000000000000D-01  2.3673788266894D-01  1.5884593660005D+00
87  8.6000000000000D-01  1.9801687738819D-01  1.6183214529525D+00
88  8.7000000000000D-01  1.6049704256988D-01  1.6444634990453D+00
89  8.8000000000000D-01  1.2428373393969D-01  1.6666623445356D+00
90  8.9000000000000D-01  8.9475687292241D-02  1.6847153641859D+00
91  9.0000000000000D-01  5.6164351728491D-02  1.6984428847460D+00
92  9.1000000000000D-01  2.4433270668158D-02  1.7076904247626D+00
93  9.2000000000000D-01 -5.6424826679796D-03  1.7123307281754D+00
94  9.3000000000000D-01 -3.3996809089678D-02  1.7122655651172D+00
95  9.4000000000000D-01 -6.0573020922664D-02  1.7074272756471D+00
96  9.5000000000000D-01 -8.5324208115901D-02  1.6977800347721D+00
97  9.6000000000000D-01 -1.0821352863185D-01  1.6833208200380D+00
98  9.7000000000000D-01 -1.2921441952979D-01  1.6640800661459D+00
99  9.8000000000000D-01 -1.4831072596490D-01  1.6401219945122D+00
100  9.9000000000000D-01 -1.6549674614068D-01  1.6115446091739D+00
101  1.0000000000000D+00 -1.8077719115333D-01  1.5784793543065D+00
102  1.0100000000000D+00 -1.9416705954547D-01  1.5410904323970D+00
103  1.0200000000000D+00 -2.0569142729215D-01  1.4995737860214D+00
104  1.0300000000000D+00 -2.1538515484614D-01  1.4541557500732D+00
105  1.0400000000000D+00 -2.2329251377238D-01  1.4050913851974D+00
106  1.0500000000000D+00 -2.2946673636068D-01  1.3526625068980D+00
107  1.0600000000000D+00 -2.3396949243702D-01  1.2971754283936D+00
108  1.0700000000000D+00 -2.3687029843047D-01  1.2389584389173D+00
109  1.0800000000000D+00 -2.3824586445708D-01  1.1783590422131D+00
110  1.0900000000000D+00 -2.3817938589738D-01  1.1157409830833D+00
111  1.1000000000000D+00 -2.3675978652745D-01  1.0514810923649D+00
112  1.1100000000000D+00 -2.3408092081475D-01  9.8596598310298D-01
113  1.1200000000000D+00 -2.3024074346161D-01  9.1958863272256D-01
114  1.1300000000000D+00 -2.2534045460853D-01  8.5274488741657D-01
115  1.1400000000000D+00 -2.1948362937591D-01  7.8582992610124D-01
116  1.1500000000000D+00 -2.1277534059866D-01  7.1923472203393D-01
117  1.1600000000000D+00 -2.0532128368047D-01  6.5334254046175D-01
118  1.1700000000000D+00 -1.9722691241479D-01  5.8852551028568D-01
119  1.1800000000000D+00 -1.8859659447965D-01  5.2514130707046D-01
120  1.1900000000000D+00 -1.7953279513405D-01  4.6352998390340D-01
121  1.2000000000000D+00 -1.7013529720483D-01  4.0401098462646D-01
122  1.2100000000000D+00 -1.6050046493070D-01  3.4688037162053D-01
123  1.2200000000000D+00 -1.5072055900467D-01  2.9240829930638D-01
124  1.2300000000000D+00 -1.4088310918551D-01  2.4083676018099D-01
125  1.2400000000000D+00 -1.3107035018348D-01  1.9237762723989D-01
126  1.2500000000000D+00 -1.2135872602503D-01  1.4721101440071D-01
127  1.2600000000000D+00 -1.1181846706446D-01  1.0548397191537D-01
128  1.2700000000000D+00 -1.0251324267586D-01  6.7309528708122D-02
129  1.2800000000000D+00 -9.3499892241531D-02  3.2766091717751D-02
130  1.2900000000000D+00 -8.4828235886390D-02  1.8972071258360D-03
131  1.3000000000000D+00 -7.6540964919190D-02 -2.5288318262159D-02
132  1.3100000000000D+00 -6.8673611877952D-02 -4.8815937498137D-02
133  1.3200000000000D+00 -6.1254598536287D-02 -6.8744534701367D-02
134  1.3300000000000D+00 -5.4305358796214D-02 -8.5165262202519D-02
135  1.3400000000000D+00 -4.7840533814896D-02 -9.8200056961696D-02
136  1.3500000000000D+00 -4.1868234451658D-02 -1.0799985962714D-01
137  1.3600000000000D+00 -3.6390365541873D-02 -1.1474256213657D-01
138  1.3700000000000D+00 -3.1403006938811D-02 -1.1863070787380D-01
139  1.3800000000000D+00 -2.6896843453691D-02 -1.1988898077737D-01
140  1.3900000000000D+00 -2.2857637012378D-02 -1.1876151453676D-01
141  1.4000000000000D+00 -1.9266733016187D-02 -1.1550905891493D-01
142  1.4100000000000D+00 -1.6101590856201D-02 -1.1040605019961D-01
143  1.4200000000000D+00 -1.3336338214153D-02 -1.0373758222840D-01
144  1.4300000000000D+00 -1.0942308006070D-02 -9.5796486718810D-02
145  1.4400000000000D+00 -8.8886609446938D-03 -8.6879986326734D-02
146  1.4500000000000D+00 -7.1428510260622D-03 -7.7287154104211D-02
147  1.4600000000000D+00 -5.6710024686652D-03 -6.7316889427739D-02
148  1.4700000000000D+00 -4.4392325662717D-03 -5.7260816004588D-02
149  1.4800000000000D+00 -3.4148549885490D-03 -4.7396944912444D-02
150  1.4900000000000D+00 -2.5678217521460D-03 -3.7982328937157D-02
151  1.5000000000000D+00 -1.8716214029468D-03 -2.9248600245824D-02
152  1.5100000000000D+00 -1.3036182688940D-03 -2.1400539656133D-02
153  1.5200000000000D+00 -8.4586109676411D-04 -1.4619149475977D-02
154  1.5300000000000D+00 -4.8410153862726D-04 -9.0206164336560D-03
155  1.5400000000000D+00 -2.1075626134276D-04 -4.7262007036407D-03
156  1.5500000000000D+00 -2.4153932322685D-05 -1.9461058330545D-03
157  1.5600000000000D+00  7.2830666266162D-05 -5.7657910563126D-04
158  1.5700000000000D+00  7.4198462427473D-05 -8.5029472223711D-05
159  1.5800000000000D+00  1.9926540508015D-05  6.2374828712762D-06
160  1.5900000000000D+00 -1.1202657008901D-05 -9.3284802253913D-06
161  1.6000000000000D+00 -4.4544325663712D-06 -5.3235402569666D-06
162  1.6100000000000D+00  2.4416009642154D-06  6.8650978920934D-07
163  1.6200000000000D+00  7.7106742273301D-07  3.4562625201827D-07
164  1.6300000000000D+00 -2.4000064253716D-07  7.1878977008569D-07
165  1.6400000000000D+00 -5.7419376949693D-08  1.7196812608426D-07
166  1.6500000000000D+00  0.0000000000000D+00  0.0000000000000D+00
167  1.6600000000000D+00  0.0000000000000D+00  0.0000000000000D+00
168  1.6700000000000D+00  0.0000000000000D+00  0.0000000000000D+00
169  1.6800000000000D+00  0.0000000000000D+00  0.0000000000000D+00
170  1.6900000000000D+00  0.0000000000000D+00  0.0000000000000D+00
171  1.7000000000000D+00  0.0000000000000D+00  0.0000000000000D+00
172  1.7100000000000D+00  0.0000000000000D+00  0.0000000000000D+00
173  1.7200000000000D+00  0.0000000000000D+00  0.0000000000000D+00
174  1.7300000000000D+00  0.0000000000000D+00  0.0000000000000D+00
175  1.7400000000000D+00  0.0000000000000D+00  0.0000000000000D+00
176  1.7500000000000D+00  0.0000000000000D+00  0.0000000000000D+00
177  1.7600000000000D+00  0.0000000000000D+00  0.0000000000000D+00
178  1.7700000000000D+00  0.0000000000000D+00  0.0000000000000D+00
179  1.7800000000000D+00  0.0000000000000D+00  0.0000000000000D+00
180  1.7900000000000D+00  0.0000000000000D+00  0.0000000000000D+00
181  1.8000000000000D+00  0.0000000000000D+00  0.0000000000000D+00
182  1.8100000000000D+00  0.0000000000000D+00  0.0000000000000D+00
183  1.8200000000000D+00  0.0000000000000D+00  0.0000000000000D+00
184  1.8300000000000D+00  0.0000000000000D+00  0.0000000000000D+00
185  1.8400000000000D+00  0.0000000000000D+00  0.0000000000000D+00
186  1.8500000000000D+00  0.0000000000000D+00  0.0000000000000D+00
187  1.8600000000000D+00  0.0000000000000D+00  0.0000000000000D+00
188  1.8700000000000D+00  0.0000000000000D+00  0.0000000000000D+00
189  1.8800000000000D+00  0.0000000000000D+00  0.0000000000000D+00
190  1.8900000000000D+00  0.0000000000000D+00  0.0000000000000D+00
191  1.9000000000000D+00  0.0000000000000D+00  0.0000000000000D+00
192  1.9100000000000D+00  0.0000000000000D+00  0.0000000000000D+00
193  1.9200000000000D+00  0.0000000000000D+00  0.0000000000000D+00
194  1.9300000000000D+00  0.0000000000000D+00  0.0000000000000D+00
195  1.9400000000000D+00  0.0000000000000D+00  0.0000000000000D+00
196  1.9500000000000D+00  0.0000000000000D+00  0.0000000000000D+00
197  1.9600000000000D+00  0.0000000000000D+00  0.0000000000000D+00
198  1.9700000000000D+00  0.0000000000000D+00  0.0000000000000D+00
199  1.9800000000000D+00  0.0000000000000D+00  0.0000000000000D+00
200  1.9900000000000D+00  0.0000000000000D+00  0.0000000000000D+00
201  2.0000000000000D+00  0.0000000000000D+00  0.0000000000000D+00
202  2.0100000000000D+00  0.0000000000000D+00  0.0000000000000D+00
203  2.0200000000000D+00  0.0000000000000D+00  0.0000000000000D+00
204  2.0300000000000D+00  0.0000000000000D+00  0.0000000000000D+00
205  2.0400000000000D+00  0.0000000000000D+00  0.0000000000000D+00
206  2.0500000000000D+00  0.0000000000000D+00  0.0000000000000D+00
207  2.0600000000000D+00  0.0000000000000D+00  0.0000000000000D+00
208  2.0700000000000D+00  0.0000000000000D+00  0.0000000000000D+00
209  2.0800000000000D+00  0.0000000000000D+00  0.0000000000000D+00
210  2.0900000000000D+00  0.0000000000000D+00  0.0000000000000D+00
211  2.1000000000000D+00  0.0000000000000D+00  0.0000000000000D+00
212  2.1100000000000D+00  0.0000000000000D+00  0.0000000000000D+00
213  2.1200000000000D+00  0.0000000000000D+00  0.0000000000000D+00
214  2.1300000000000D+00  0.0000000000000D+00  0.0000000000000D+00
215  2.1400000000000D+00  0.0000000000000D+00  0.0000000000000D+00
216  2.1500000000000D+00  0.0000000000000D+00  0.0000000000000D+00
217  2.1600000000000D+00  0.0000000000000D+00  0.0000000000000D+00
218  2.1700000000000D+00  0.0000000000000D+00  0.0000000000000D+00
219  2.1800000000000D+00  0.0000000000000D+00  0.0000000000000D+00
220  2.1900000000000D+00  0.0000000000000D+00  0.0000000000000D+00
221  2.2000000000000D+00  0.0000000000000D+00  0.0000000000000D+00
222  2.2100000000000D+00  0.0000000000000D+00  0.0000000000000D+00
223  2.2200000000000D+00  0.0000000000000D+00  0.0000000000000D+00
224  2.2300000000000D+00  0.0000000000000D+00  0.0000000000000D+00
225  2.2400000000000D+00  0.0000000000000D+00  0.0000000000000D+00
226  2.2500000000000D+00  0.0000000000000D+00  0.0000000000000D+00
227  2.2600000000000D+00  0.0000000000000D+00  0.0000000000000D+00
228  2.2700000000000D+00  0.0000000000000D+00  0.0000000000000D+00
229  2.2800000000000D+00  0.0000000000000D+00  0.0000000000000D+00
230  2.2900000000000D+00  0.0000000000000D+00  0.0000000000000D+00
231  2.3000000000000D+00  0.0000000000000D+00  0.0000000000000D+00
232  2.3100000000000D+00  0.0000000000000D+00  0.0000000000000D+00
233  2.3200000000000D+00  0.0000000000000D+00  0.0000000000000D+00
234  2.3300000000000D+00  0.0000000000000D+00  0.0000000000000D+00
235  2.3400000000000D+00  0.0000000000000D+00  0.0000000000000D+00
236  2.3500000000000D+00  0.0000000000000D+00  0.0000000000000D+00
237  2.3600000000000D+00  0.0000000000000D+00  0.0000000000000D+00
238  2.3700000000000D+00  0.0000000000000D+00  0.0000000000000D+00
239  2.3800000000000D+00  0.0000000000000D+00  0.0000000000000D+00
240  2.3900000000000D+00  0.0000000000000D+00  0.0000000000000D+00
241  2.4000000000000D+00  0.0000000000000D+00  0.0000000000000D+00
242  2.4100000000000D+00  0.0000000000000D+00  0.0000000000000D+00
243  2.4200000000000D+00  0.0000000000000D+00  0.0000000000000D+00
244  2.4300000000000D+00  0.0000000000000D+00  0.0000000000000D+00
245  2.4400000000000D+00  0.0000000000000D+00  0.0000000000000D+00
246  2.4500000000000D+00  0.0000000000000D+00  0.0000000000000D+00
247  2.4600000000000D+00  0.0000000000000D+00  0.0000000000000D+00
248  2.4700000000000D+00  0.0000000000000D+00  0.0000000000000D+00
249  2.4800000000000D+00  0.0000000000000D+00  0.0000000000000D+00
250  2.4900000000000D+00  0.0000000000000D+00  0.0000000000000D+00
251  2.5000000000000D+00  0.0000000000000D+00  0.0000000000000D+00
252  2.5100000000000D+00  0.0000000000000D+00  0.0000000000000D+00
253  2.5200000000000D+00  0.0000000000000D+00  0.0000000000000D+00
254  2.5300000000000D+00  0.0000000000000D+00  0.0000000000000D+00
255  2.5400000000000D+00  0.0000000000000D+00  0.0000000000000D+00
256  2.5500000000000D+00  0.0000000000000D+00  0.0000000000000D+00
257  2.5600000000000D+00  0.0000000000000D+00  0.0000000000000D+00
258  2.5700000000000D+00  0.0000000000000D+00  0.0000000000000D+00
259  2.5800000000000D+00  0.0000000000000D+00  0.0000000000000D+00
260  2.5900000000000D+00  0.0000000000000D+00  0.0000000000000D+00
261  2.6000000000000D+00  0.0000000000000D+00  0.0000000000000D+00
262  2.6100000000000D+00  0.0000000000000D+00  0.0000000000000D+00
263  2.6200000000000D+00  0.0000000000000D+00  0.0000000000000D+00
264  2.6300000000000D+00  0.0000000000000D+00  0.0000000000000D+00
265  2.6400000000000D+00  0.0000000000000D+00  0.0000000000000D+00
266  2.6500000000000D+00  0.0000000000000D+00  0.0000000000000D+00
267  2.6600000000000D+00  0.0000000000000D+00  0.0000000000000D+00
268  2.6700000000000D+00  0.0000000000000D+00  0.0000000000000D+00
269  2.6800000000000D+00  0.0000000000000D+00  0.0000000000000D+00
270  2.6900000000000D+00  0.0000000000000D+00  0.0000000000000D+00
271  2.7000000000000D+00  0.0000000000000D+00  0.0000000000000D+00
272  2.7100000000000D+00  0.0000000000000D+00  0.0000000000000D+00
273  2.7200000000000D+00  0.0000000000000D+00  0.0000000000000D+00
274  2.7300000000000D+00  0.0000000000000D+00  0.0000000000000D+00
275  2.7400000000000D+00  0.0000000000000D+00  0.0000000000000D+00
276  2.7500000000000D+00  0.0000000000000D+00  0.0000000000000D+00
277  2.7600000000000D+00  0.0000000000000D+00  0.0000000000000D+00
278  2.7700000000000D+00  0.0000000000000D+00  0.0000000000000D+00
279  2.7800000000000D+00  0.0000000000000D+00  0.0000000000000D+00
280  2.7900000000000D+00  0.0000000000000D+00  0.0000000000000D+00
281  2.8000000000000D+00  0.0000000000000D+00  0.0000000000000D+00
282  2.8100000000000D+00  0.0000000000000D+00  0.0000000000000D+00
283  2.8200000000000D+00  0.0000000000000D+00  0.0000000000000D+00
284  2.8300000000000D+00  0.0000000000000D+00  0.0000000000000D+00
285  2.8400000000000D+00  0.0000000000000D+00  0.0000000000000D+00
286  2.8500000000000D+00  0.0000000000000D+00  0.0000000000000D+00
287  2.8600000000000D+00  0.0000000000000D+00  0.0000000000000D+00
288  2.8700000000000D+00  0.0000000000000D+00  0.0000000000000D+00
289  2.8800000000000D+00  0.0000000000000D+00  0.0000000000000D+00
290  2.8900000000000D+00  0.0000000000000D+00  0.0000000000000D+00
291  2.9000000000000D+00  0.0000000000000D+00  0.0000000000000D+00
292  2.9100000000000D+00  0.0000000000000D+00  0.0000000000000D+00
293  2.9200000000000D+00  0.0000000000000D+00  0.0000000000000D+00
294  2.9300000000000D+00  0.0000000000000D+00  0.0000000000000D+00
295  2.9400000000000D+00  0.0000000000000D+00  0.0000000000000D+00
296  2.9500000000000D+00  0.0000000000000D+00  0.0000000000000D+00
297  2.9600000000000D+00  0.0000000000000D+00  0.0000000000000D+00
298  2.9700000000000D+00  0.0000000000000D+00  0.0000000000000D+00
299  2.9800000000000D+00  0.0000000000000D+00  0.0000000000000D+00
300  2.9900000000000D+00  0.0000000000000D+00  0.0000000000000D+00
301  3.0000000000000D+00  0.0000000000000D+00  0.0000000000000D+00
302  3.0100000000000D+00  0.0000000000000D+00  0.0000000000000D+00
303  3.0200000000000D+00  0.0000000000000D+00  0.0000000000000D+00
304  3.0300000000000D+00  0.0000000000000D+00  0.0000000000000D+00
305  3.0400000000000D+00  0.0000000000000D+00  0.0000000000000D+00
306  3.0500000000000D+00  0.0000000000000D+00  0.0000000000000D+00
307  3.0600000000000D+00  0.0000000000000D+00  0.0000000000000D+00
308  3.0700000000000D+00  0.0000000000000D+00  0.0000000000000D+00
309  3.0800000000000D+00  0.0000000000000D+00  0.0000000000000D+00
310  3.0900000000000D+00  0.0000000000000D+00  0.0000000000000D+00
311  3.1000000000000D+00  0.0000000000000D+00  0.0000000000000D+00
312  3.1100000000000D+00  0.0000000000000D+00  0.0000000000000D+00
313  3.1200000000000D+00  0.0000000000000D+00  0.0000000000000D+00
314  3.1300000000000D+00  0.0000000000000D+00  0.0000000000000D+00
315  3.1400000000000D+00  0.0000000000000D+00  0.0000000000000D+00
316  3.1500000000000D+00  0.0000000000000D+00  0.0000000000000D+00
317  3.1600000000000D+00  0.0000000000000D+00  0.0000000000000D+00
318  3.1700000000000D+00  0.0000000000000D+00  0.0000000000000D+00
319  3.1800000000000D+00  0.0000000000000D+00  0.0000000000000D+00
320  3.1900000000000D+00  0.0000000000000D+00  0.0000000000000D+00
321  3.2000000000000D+00  0.0000000000000D+00  0.0000000000000D+00
322  3.2100000000000D+00  0.0000000000000D+00  0.0000000000000D+00
323  3.2200000000000D+00  0.0000000000000D+00  0.0000000000000D+00
324  3.2300000000000D+00  0.0000000000000D+00  0.0000000000000D+00
325  3.2400000000000D+00  0.0000000000000D+00  0.0000000000000D+00
326  3.2500000000000D+00  0.0000000000000D+00  0.0000000000000D+00
327  3.2600000000000D+00  0.0000000000000D+00  0.0000000000000D+00
328  3.2700000000000D+00  0.0000000000000D+00  0.0000000000000D+00
329  3.2800000000000D+00  0.0000000000000D+00  0.0000000000000D+00
330  3.2900000000000D+00  0.0000000000000D+00  0.0000000000000D+00
331  3.3000000000000D+00  0.0000000000000D+00  0.0000000000000D+00
332  3.3100000000000D+00  0.0000000000000D+00  0.0000000000000D+00
333  3.3200000000000D+00  0.0000000000000D+00  0.0000000000000D+00
334  3.3300000000000D+00  0.0000000000000D+00  0.0000000000000D+00
335  3.3400000000000D+00  0.0000000000000D+00  0.0000000000000D+00
336  3.3500000000000D+00  0.0000000000000D+00  0.0000000000000D+00
337  3.3600000000000D+00  0.0000000000000D+00  0.0000000000000D+00
338  3.3700000000000D+00  0.0000000000000D+00  0.0000000000000D+00
339  3.3800000000000D+00  0.0000000000000D+00  0.0000000000000D+00
340  3.3900000000000D+00  0.0000000000000D+00  0.0000000000000D+00
341  3.4000000000000D+00  0.0000000000000D+00  0.0000000000000D+00
342  3.4100000000000D+00  0.0000000000000D+00  0.0000000000000D+00
343  3.4200000000000D+00  0.0000000000000D+00  0.0000000000000D+00
344  3.4300000000000D+00  0.0000000000000D+00  0.0000000000000D+00
345  3.4400000000000D+00  0.0000000000000D+00  0.0000000000000D+00
346  3.4500000000000D+00  0.0000000000000D+00  0.0000000000000D+00
347  3.4600000000000D+00  0.0000000000000D+00  0.0000000000000D+00
348  3.4700000000000D+00  0.0000000000000D+00  0.0000000000000D+00
349  3.4800000000000D+00  0.0000000000000D+00  0.0000000000000D+00
350  3.4900000000000D+00  0.0000000000000D+00  0.0000000000000D+00
351  3.5000000000000D+00  0.0000000000000D+00  0.0000000000000D+00
352  3.5100000000000D+00  0.0000000000000D+00  0.0000000000000D+00
353  3.5200000000000D+00  0.0000000000000D+00  0.0000000000000D+00
354  3.5300000000000D+00  0.0000000000000D+00  0.0000000000000D+00
355  3.5400000000000D+00  0.0000000000000D+00  0.0000000000000D+00
356  3.5500000000000D+00  0.0000000000000D+00  0.0000000000000D+00
357  3.5600000000000D+00  0.0000000000000D+00  0.0000000000000D+00
358  3.5700000000000D+00  0.0000000000000D+00  0.0000000000000D+00
359  3.5800000000000D+00  0.0000000000000D+00  0.0000000000000D+00
360  3.5900000000000D+00  0.0000000000000D+00  0.0000000000000D+00
361  3.6000000000000D+00  0.0000000000000D+00  0.0000000000000D+00
362  3.6100000000000D+00  0.0000000000000D+00  0.0000000000000D+00
363  3.6200000000000D+00  0.0000000000000D+00  0.0000000000000D+00
364  3.6300000000000D+00  0.0000000000000D+00  0.0000000000000D+00
365  3.6400000000000D+00  0.0000000000000D+00  0.0000000000000D+00
366  3.6500000000000D+00  0.0000000000000D+00  0.0000000000000D+00
367  3.6600000000000D+00  0.0000000000000D+00  0.0000000000000D+00
368  3.6700000000000D+00  0.0000000000000D+00  0.0000000000000D+00
369  3.6800000000000D+00  0.0000000000000D+00  0.0000000000000D+00
370  3.6900000000000D+00  0.0000000000000D+00  0.0000000000000D+00
371  3.7000000000000D+00  0.0000000000000D+00  0.0000000000000D+00
372  3.7100000000000D+00  0.0000000000000D+00  0.0000000000000D+00
373  3.7200000000000D+00  0.0000000000000D+00  0.0000000000000D+00
374  3.7300000000000D+00  0.0000000000000D+00  0.0000000000000D+00
375  3.7400000000000D+00  0.0000000000000D+00  0.0000000000000D+00
376  3.7500000000000D+00  0.0000000000000D+00  0.0000000000000D+00
377  3.7600000000000D+00  0.0000000000000D+00  0.0000000000000D+00
378  3.7700000000000D+00  0.0000000000000D+00  0.0000000000000D+00
379  3.7800000000000D+00  0.0000000000000D+00  0.0000000000000D+00
380  3.7900000000000D+00  0.0000000000000D+00  0.0000000000000D+00
381  3.8000000000000D+00  0.0000000000000D+00  0.0000000000000D+00
382  3.8100000000000D+00  0.0000000000000D+00  0.0000000000000D+00
383  3.8200000000000D+00  0.0000000000000D+00  0.0000000000000D+00
384  3.8300000000000D+00  0.0000000000000D+00  0.0000000000000D+00
385  3.8400000000000D+00  0.0000000000000D+00  0.0000000000000D+00
386  3.8500000000000D+00  0.0000000000000D+00  0.0000000000000D+00
387  3.8600000000000D+00  0.0000000000000D+00  0.0000000000000D+00
388  3.8700000000000D+00  0.0000000000000D+00  0.0000000000000D+00
389  3.8800000000000D+00  0.0000000000000D+00  0.0000000000000D+00
390  3.8900000000000D+00  0.0000000000000D+00  0.0000000000000D+00
391  3.9000000000000D+00  0.0000000000000D+00  0.0000000000000D+00
392  3.9100000000000D+00  0.0000000000000D+00  0.0000000000000D+00
393  3.9200000000000D+00  0.0000000000000D+00  0.0000000000000D+00
394  3.9300000000000D+00  0.0000000000000D+00  0.0000000000000D+00
395  3.9400000000000D+00  0.0000000000000D+00  0.0000000000000D+00
396  3.9500000000000D+00  0.0000000000000D+00  0.0000000000000D+00
397  3.9600000000000D+00  0.0000000000000D+00  0.0000000000000D+00
398  3.9700000000000D+00  0.0000000000000D+00  0.0000000000000D+00
399  3.9800000000000D+00  0.0000000000000D+00  0.0000000000000D+00
400  3.9900000000000D+00  0.0000000000000D+00  0.0000000000000D+00
401  4.0000000000000D+00  0.0000000000000D+00  0.0000000000000D+00
402  4.0100000000000D+00  0.0000000000000D+00  0.0000000000000D+00
403  4.0200000000000D+00  0.0000000000000D+00  0.0000000000000D+00
404  4.0300000000000D+00  0.0000000000000D+00  0.0000000000000D+00
405  4.0400000000000D+00  0.0000000000000D+00  0.0000000000000D+00
406  4.0500000000000D+00  0.0000000000000D+00  0.0000000000000D+00
407  4.0600000000000D+00  0.0000000000000D+00  0.0000000000000D+00
408  4.0700000000000D+00  0.0000000000000D+00  0.0000000000000D+00
409  4.0800000000000D+00  0.0000000000000D+00  0.0000000000000D+00
410  4.0900000000000D+00  0.0000000000000D+00  0.0000000000000D+00
411  4.1000000000000D+00  0.0000000000000D+00  0.0000000000000D+00
412  4.1100000000000D+00  0.0000000000000D+00  0.0000000000000D+00
413  4.1200000000000D+00  0.0000000000000D+00  0.0000000000000D+00
414  4.1300000000000D+00  0.0000000000000D+00  0.0000000000000D+00
415  4.1400000000000D+00  0.0000000000000D+00  0.0000000000000D+00
416  4.1500000000000D+00  0.0000000000000D+00  0.0000000000000D+00
417  4.1600000000000D+00  0.0000000000000D+00  0.0000000000000D+00
418  4.1700000000000D+00  0.0000000000000D+00  0.0000000000000D+00
419  4.1800000000000D+00  0.0000000000000D+00  0.0000000000000D+00
420  4.1900000000000D+00  0.0000000000000D+00  0.0000000000000D+00
421  4.2000000000000D+00  0.0000000000000D+00  0.0000000000000D+00
422  4.2100000000000D+00  0.0000000000000D+00  0.0000000000000D+00
423  4.2200000000000D+00  0.0000000000000D+00  0.0000000000000D+00
424  4.2300000000000D+00  0.0000000000000D+00  0.0000000000000D+00
425  4.2400000000000D+00  0.0000000000000D+00  0.0000000000000D+00
426  4.2500000000000D+00  0.0000000000000D+00  0.0000000000000D+00
427  4.2600000000000D+00  0.0000000000000D+00  0.0000000000000D+00
428  4.2700000000000D+00  0.0000000000000D+00  0.0000000000000D+00
429  4.2800000000000D+00  0.0000000000000D+00  0.0000000000000D+00
430  4.2900000000000D+00  0.0000000000000D+00  0.0000000000000D+00
431  4.3000000000000D+00  0.0000000000000D+00  0.0000000000000D+00
432  4.3100000000000D+00  0.0000000000000D+00  0.0000000000000D+00
433  4.3200000000000D+00  0.0000000000000D+00  0.0000000000000D+00
434  4.3300000000000D+00  0.0000000000000D+00  0.0000000000000D+00
435  4.3400000000000D+00  0.0000000000000D+00  0.0000000000000D+00
436  4.3500000000000D+00  0.0000000000000D+00  0.0000000000000D+00
437  4.3600000000000D+00  0.0000000000000D+00  0.0000000000000D+00
438  4.3700000000000D+00  0.0000000000000D+00  0.0000000000000D+00
439  4.3800000000000D+00  0.0000000000000D+00  0.0000000000000D+00
440  4.3900000000000D+00  0.0000000000000D+00  0.0000000000000D+00
441  4.4000000000000D+00  0.0000000000000D+00  0.0000000000000D+00
442  4.4100000000000D+00  0.0000000000000D+00  0.0000000000000D+00
443  4.4200000000000D+00  0.0000000000000D+00  0.0000000000000D+00