
.Version 8.11.12 of ABINIT 
.(MPI version, prepared for a x86_64_linux_gnu9.2 computer) 

.Copyright (C) 1998-2019 ABINIT group . 
 ABINIT comes with ABSOLUTELY NO WARRANTY.
 It is free software, and you are welcome to redistribute it
 under certain conditions (GNU General Public License,
 see ~abinit/COPYING or http://www.gnu.org/copyleft/gpl.txt).

 ABINIT is a project of the Universite Catholique de Louvain,
 Corning Inc. and other collaborators, see ~abinit/doc/developers/contributors.txt .
 Please read https://docs.abinit.org/theory/acknowledgments for suggested
 acknowledgments of the ABINIT effort.
 For more information, see https://www.abinit.org .

.Starting date : Mon 25 Nov 2019.
- ( at 08h25 )
  
- input  file    -> t06.in
- output file    -> t06.out
- root for input  files -> t06i
- root for output files -> t06o


 DATASET    1 : space group Fd -3 m (#227); Bravais cF (face-center cubic)
================================================================================
 Values of the parameters that define the memory need for DATASET  1.
     intxc =       0    ionmov =       0      iscf =       7    lmnmax =       2
     lnmax =       2     mgfft =      16  mpssoang =       3    mqgrid =    3001
     natom =       2  nloc_mem =       1    nspden =       1   nspinor =       1
    nsppol =       1      nsym =      48    n1xccc =       0    ntypat =       1
    occopt =       1   xclevel =       1
-    mband =           4        mffmem =           1         mkmem =           2
       mpw =         188          nfft =        4096          nkpt =           2
================================================================================
P This job should need less than                       1.599 Mbytes of memory.
  Rough estimation (10% accuracy) of disk space for files :
_ WF disk file :      0.025 Mbytes ; DEN or POT disk file :      0.033 Mbytes.
================================================================================


 DATASET    2 : space group Fd -3 m (#227); Bravais cF (face-center cubic)
================================================================================
 Values of the parameters that define the memory need for DATASET  2.
     intxc =       0    ionmov =       0      iscf =      -2    lmnmax =       2
     lnmax =       2     mgfft =      16  mpssoang =       3    mqgrid =    3001
     natom =       2  nloc_mem =       1    nspden =       1   nspinor =       1
    nsppol =       1      nsym =      48    n1xccc =       0    ntypat =       1
    occopt =       1   xclevel =       1
-    mband =           4        mffmem =           1         mkmem =          16
       mpw =         188          nfft =        4096          nkpt =          16
================================================================================
P This job should need less than                       1.299 Mbytes of memory.
  Rough estimation (10% accuracy) of disk space for files :
_ WF disk file :      0.186 Mbytes ; DEN or POT disk file :      0.033 Mbytes.
================================================================================


 DATASET    3 : space group Fd -3 m (#227); Bravais cF (face-center cubic)
================================================================================
 Values of the parameters that define the memory need for DATASET  3 (RF).
     intxc =       0      iscf =      -3    lmnmax =       2     lnmax =       2
     mgfft =      16  mpssoang =       3    mqgrid =    3001     natom =       2
  nloc_mem =       1    nspden =       1   nspinor =       1    nsppol =       1
      nsym =      48    n1xccc =       0    ntypat =       1    occopt =       1
   xclevel =       1
-    mband =           4        mffmem =           1         mkmem =          16
-   mkqmem =          16        mk1mem =          16           mpw =         188
      nfft =        4096          nkpt =          16
================================================================================
P This job should need less than                       1.913 Mbytes of memory.
  Rough estimation (10% accuracy) of disk space for files :
_ WF disk file :      0.186 Mbytes ; DEN or POT disk file :      0.033 Mbytes.
================================================================================


 DATASET    4 : space group Fd -3 m (#227); Bravais cF (face-center cubic)
================================================================================
 Values of the parameters that define the memory need for DATASET  4 (RF).
     intxc =       0      iscf =       7    lmnmax =       2     lnmax =       2
     mgfft =      16  mpssoang =       3    mqgrid =    3001     natom =       2
  nloc_mem =       1    nspden =       1   nspinor =       1    nsppol =       1
      nsym =      48    n1xccc =       0    ntypat =       1    occopt =       1
   xclevel =       1
-    mband =           4        mffmem =           1         mkmem =          16
-   mkqmem =          16        mk1mem =          16           mpw =         188
      nfft =        4096          nkpt =          16
================================================================================
P This job should need less than                       1.944 Mbytes of memory.
  Rough estimation (10% accuracy) of disk space for files :
_ WF disk file :      0.186 Mbytes ; DEN or POT disk file :      0.033 Mbytes.
================================================================================

--------------------------------------------------------------------------------
------------- Echo of variables that govern the present computation ------------
--------------------------------------------------------------------------------
-
- outvars: echo of selected default values                                      
-   iomode0 =  0 , fftalg0 =312 , wfoptalg0 =  0
-
- outvars: echo of global parameters not present in the input file              
-  max_nthreads =    0
-
 -outvars: echo values of preprocessed input variables --------
            acell      1.0260000000E+01  1.0260000000E+01  1.0260000000E+01 Bohr
              amu      2.80860000E+01
           diemac1     1.00000000E+06
           diemac2     1.00000000E+06
           diemac3     1.00000000E+06
           diemac4     1.00000000E+00
           diemix1     1.00000000E+00
           diemix2     1.00000000E+00
           diemix3     1.00000000E+00
           diemix4     8.50000000E-01
             ecut      6.00000000E+00 Hartree
-          fftalg         312
           getddk1          0
           getddk2          0
           getddk3          3
           getddk4          3
           getden1          0
           getden2          1
           getden3          1
           getden4          0
           getwfk1          0
           getwfk2          1
           getwfk3          2
           getwfk4          2
             iscf1          7
             iscf2         -2
             iscf3         -3
             iscf4          7
              ixc           3
           jdtset        1    2    3    4
              kpt1     2.50000000E-01  2.50000000E-01  2.50000000E-01
                       2.50000000E-01  5.00000000E-01  5.00000000E-01
              kpt2     2.50000000E-01  2.50000000E-01  2.50000000E-01
                       0.00000000E+00  0.00000000E+00  2.50000000E-01
                       0.00000000E+00  2.50000000E-01  0.00000000E+00
                       2.50000000E-01  0.00000000E+00  0.00000000E+00
                       5.00000000E-01  5.00000000E-01  2.50000000E-01
                       5.00000000E-01  2.50000000E-01  5.00000000E-01
                       2.50000000E-01  5.00000000E-01  5.00000000E-01
                       5.00000000E-01  2.50000000E-01  0.00000000E+00
                       2.50000000E-01  0.00000000E+00  5.00000000E-01
                       0.00000000E+00  5.00000000E-01  2.50000000E-01
                       0.00000000E+00  2.50000000E-01  5.00000000E-01
                       2.50000000E-01  5.00000000E-01  0.00000000E+00
                       5.00000000E-01  0.00000000E+00  2.50000000E-01
                       2.50000000E-01  2.50000000E-01 -2.50000000E-01
                       2.50000000E-01 -2.50000000E-01  2.50000000E-01
                      -2.50000000E-01  2.50000000E-01  2.50000000E-01
              kpt3     2.50000000E-01  2.50000000E-01  2.50000000E-01
                       0.00000000E+00  0.00000000E+00  2.50000000E-01
                       0.00000000E+00  2.50000000E-01  0.00000000E+00
                       2.50000000E-01  0.00000000E+00  0.00000000E+00
                       5.00000000E-01  5.00000000E-01  2.50000000E-01
                       5.00000000E-01  2.50000000E-01  5.00000000E-01
                       2.50000000E-01  5.00000000E-01  5.00000000E-01
                       5.00000000E-01  2.50000000E-01  0.00000000E+00
                       2.50000000E-01  0.00000000E+00  5.00000000E-01
                       0.00000000E+00  5.00000000E-01  2.50000000E-01
                       0.00000000E+00  2.50000000E-01  5.00000000E-01
                       2.50000000E-01  5.00000000E-01  0.00000000E+00
                       5.00000000E-01  0.00000000E+00  2.50000000E-01
                       2.50000000E-01  2.50000000E-01 -2.50000000E-01
                       2.50000000E-01 -2.50000000E-01  2.50000000E-01
                      -2.50000000E-01  2.50000000E-01  2.50000000E-01
              kpt4     2.50000000E-01  2.50000000E-01  2.50000000E-01
                       0.00000000E+00  0.00000000E+00  2.50000000E-01
                       0.00000000E+00  2.50000000E-01  0.00000000E+00
                       2.50000000E-01  0.00000000E+00  0.00000000E+00
                       5.00000000E-01  5.00000000E-01  2.50000000E-01
                       5.00000000E-01  2.50000000E-01  5.00000000E-01
                       2.50000000E-01  5.00000000E-01  5.00000000E-01
                       5.00000000E-01  2.50000000E-01  0.00000000E+00
                       2.50000000E-01  0.00000000E+00  5.00000000E-01
                       0.00000000E+00  5.00000000E-01  2.50000000E-01
                       0.00000000E+00  2.50000000E-01  5.00000000E-01
                       2.50000000E-01  5.00000000E-01  0.00000000E+00
                       5.00000000E-01  0.00000000E+00  2.50000000E-01
                       2.50000000E-01  2.50000000E-01 -2.50000000E-01
                       2.50000000E-01 -2.50000000E-01  2.50000000E-01
                      -2.50000000E-01  2.50000000E-01  2.50000000E-01
           kptopt           0
P           mkmem1          2
P           mkmem2         16
P           mkmem3         16
P           mkmem4         16
P          mkqmem1          2
P          mkqmem2         16
P          mkqmem3         16
P          mkqmem4         16
P          mk1mem1          2
P          mk1mem2         16
P          mk1mem3         16
P          mk1mem4         16
            natom           2
            nband1          4
            nband2          4
            nband3          4
            nband4          4
           nbdbuf1          0
           nbdbuf2          2
           nbdbuf3          0
           nbdbuf4          0
           ndtset           4
            ngfft          16      16      16
             nkpt1          2
             nkpt2         16
             nkpt3         16
             nkpt4         16
             nsym          48
           ntypat           1
              occ1     2.000000  2.000000  2.000000  2.000000
              occ3     2.000000  2.000000  2.000000  2.000000
              occ4     2.000000  2.000000  2.000000  2.000000
        optdriver1          0
        optdriver2          0
        optdriver3          1
        optdriver4          1
          rfatpol1          1       1
          rfatpol2          1       1
          rfatpol3          1       1
          rfatpol4          1       2
            rfdir1          0       0       0
            rfdir2          0       0       0
            rfdir3          1       0       0
            rfdir4          1       1       1
           rfelfd1          0
           rfelfd2          0
           rfelfd3          2
           rfelfd4          3
           rfphon1          0
           rfphon2          0
           rfphon3          0
           rfphon4          1
            rprim      0.0000000000E+00  5.0000000000E-01  5.0000000000E-01
                       5.0000000000E-01  0.0000000000E+00  5.0000000000E-01
                       5.0000000000E-01  5.0000000000E-01  0.0000000000E+00
          spgroup         227
           symrel      1  0  0   0  1  0   0  0  1       0  1 -1   1  0 -1   0  0 -1
                       0 -1  1   0 -1  0   1 -1  0      -1  0  0  -1  0  1  -1  1  0
                       0  1  0   0  0  1   1  0  0       1  0 -1   0  0 -1   0  1 -1
                       0 -1  0   1 -1  0   0 -1  1      -1  0  1  -1  1  0  -1  0  0
                       0  0  1   1  0  0   0  1  0       0  0 -1   0  1 -1   1  0 -1
                       1 -1  0   0 -1  1   0 -1  0      -1  1  0  -1  0  0  -1  0  1
                       1  0 -1   0  1 -1   0  0 -1       0  1  0   1  0  0   0  0  1
                      -1  0  1  -1  0  0  -1  1  0       0 -1  0   0 -1  1   1 -1  0
                      -1  1  0  -1  0  1  -1  0  0       1 -1  0   0 -1  0   0 -1  1
                       0  0 -1   1  0 -1   0  1 -1       0  0  1   0  1  0   1  0  0
                       0 -1  1   1 -1  0   0 -1  0      -1  0  0  -1  1  0  -1  0  1
                       1  0  0   0  0  1   0  1  0       0  1 -1   0  0 -1   1  0 -1
                      -1  0  0   0 -1  0   0  0 -1       0 -1  1  -1  0  1   0  0  1
                       0  1 -1   0  1  0  -1  1  0       1  0  0   1  0 -1   1 -1  0
                       0 -1  0   0  0 -1  -1  0  0      -1  0  1   0  0  1   0 -1  1
                       0  1  0  -1  1  0   0  1 -1       1  0 -1   1 -1  0   1  0  0
                       0  0 -1  -1  0  0   0 -1  0       0  0  1   0 -1  1  -1  0  1
                      -1  1  0   0  1 -1   0  1  0       1 -1  0   1  0  0   1  0 -1
                      -1  0  1   0 -1  1   0  0  1       0 -1  0  -1  0  0   0  0 -1
                       1  0 -1   1  0  0   1 -1  0       0  1  0   0  1 -1  -1  1  0
                       1 -1  0   1  0 -1   1  0  0      -1  1  0   0  1  0   0  1 -1
                       0  0  1  -1  0  1   0 -1  1       0  0 -1   0 -1  0  -1  0  0
                       0  1 -1  -1  1  0   0  1  0       1  0  0   1 -1  0   1  0 -1
                      -1  0  0   0  0 -1   0 -1  0       0 -1  1   0  0  1  -1  0  1
            tnons      0.0000000  0.0000000  0.0000000     0.0000000  0.0000000  0.0000000
                       0.0000000  0.0000000  0.0000000     0.0000000  0.0000000  0.0000000
                       0.0000000  0.0000000  0.0000000     0.0000000  0.0000000  0.0000000
                       0.0000000  0.0000000  0.0000000     0.0000000  0.0000000  0.0000000
                       0.0000000  0.0000000  0.0000000     0.0000000  0.0000000  0.0000000
                       0.0000000  0.0000000  0.0000000     0.0000000  0.0000000  0.0000000
                       0.0000000  0.0000000  0.0000000     0.0000000  0.0000000  0.0000000
                       0.0000000  0.0000000  0.0000000     0.0000000  0.0000000  0.0000000
                       0.0000000  0.0000000  0.0000000     0.0000000  0.0000000  0.0000000
                       0.0000000  0.0000000  0.0000000     0.0000000  0.0000000  0.0000000
                       0.0000000  0.0000000  0.0000000     0.0000000  0.0000000  0.0000000
                       0.0000000  0.0000000  0.0000000     0.0000000  0.0000000  0.0000000
                       0.2500000  0.2500000  0.2500000     0.2500000  0.2500000  0.2500000
                       0.2500000  0.2500000  0.2500000     0.2500000  0.2500000  0.2500000
                       0.2500000  0.2500000  0.2500000     0.2500000  0.2500000  0.2500000
                       0.2500000  0.2500000  0.2500000     0.2500000  0.2500000  0.2500000
                       0.2500000  0.2500000  0.2500000     0.2500000  0.2500000  0.2500000
                       0.2500000  0.2500000  0.2500000     0.2500000  0.2500000  0.2500000
                       0.2500000  0.2500000  0.2500000     0.2500000  0.2500000  0.2500000
                       0.2500000  0.2500000  0.2500000     0.2500000  0.2500000  0.2500000
                       0.2500000  0.2500000  0.2500000     0.2500000  0.2500000  0.2500000
                       0.2500000  0.2500000  0.2500000     0.2500000  0.2500000  0.2500000
                       0.2500000  0.2500000  0.2500000     0.2500000  0.2500000  0.2500000
                       0.2500000  0.2500000  0.2500000     0.2500000  0.2500000  0.2500000
           tolwfr1     1.00000000E-28
           tolwfr2     1.00000000E-28
           tolwfr3     1.00000000E-28
           tolwfr4     1.00000000E-12
            typat      1  1
              wtk1       0.25000    0.75000
              wtk2       1.00000    1.00000    1.00000    1.00000    1.00000    1.00000
                         1.00000    1.00000    1.00000    1.00000    1.00000    1.00000
                         1.00000    1.00000    1.00000    1.00000
              wtk3       0.06250    0.06250    0.06250    0.06250    0.06250    0.06250
                         0.06250    0.06250    0.06250    0.06250    0.06250    0.06250
                         0.06250    0.06250    0.06250    0.06250
              wtk4       0.06250    0.06250    0.06250    0.06250    0.06250    0.06250
                         0.06250    0.06250    0.06250    0.06250    0.06250    0.06250
                         0.06250    0.06250    0.06250    0.06250
           xangst      0.0000000000E+00  0.0000000000E+00  0.0000000000E+00
                       1.3573395400E+00  1.3573395400E+00  1.3573395400E+00
            xcart      0.0000000000E+00  0.0000000000E+00  0.0000000000E+00
                       2.5650000000E+00  2.5650000000E+00  2.5650000000E+00
             xred      0.0000000000E+00  0.0000000000E+00  0.0000000000E+00
                       2.5000000000E-01  2.5000000000E-01  2.5000000000E-01
            znucl       14.00000

================================================================================

 chkinp: Checking input parameters for consistency, jdtset=   1.

 chkinp: Checking input parameters for consistency, jdtset=   2.

 chkinp: Checking input parameters for consistency, jdtset=   3.

 chkinp: Checking input parameters for consistency, jdtset=   4.

================================================================================
== DATASET  1 ==================================================================
-   nproc =    1

 Exchange-correlation functional for the present dataset will be:
  LDA: old Teter (4/91) fit to Ceperley-Alder data - ixc=3

 Real(R)+Recip(G) space primitive vectors, cartesian coordinates (Bohr,Bohr^-1):
 R(1)=  0.0000000  5.1300000  5.1300000  G(1)= -0.0974659  0.0974659  0.0974659
 R(2)=  5.1300000  0.0000000  5.1300000  G(2)=  0.0974659 -0.0974659  0.0974659
 R(3)=  5.1300000  5.1300000  0.0000000  G(3)=  0.0974659  0.0974659 -0.0974659
 Unit cell volume ucvol=  2.7001139E+02 bohr^3
 Angles (23,13,12)=  6.00000000E+01  6.00000000E+01  6.00000000E+01 degrees

 getcut: wavevector=  0.0000  0.0000  0.0000  ngfft=  16  16  16
         ecut(hartree)=      6.000   => boxcut(ratio)=   2.00008

--- Pseudopotential description ------------------------------------------------
- pspini: atom type   1  psp file is /home/buildbot/bb/ABINIT/abiref_gnu_9.2_openmpi/trunk__gonze3/tests/Psps_for_tests/14si.Hamann_mod
- pspatm: opening atomic psp file    /home/buildbot/bb/ABINIT/abiref_gnu_9.2_openmpi/trunk__gonze3/tests/Psps_for_tests/14si.Hamann_mod
-   Si psp produced from Hamann's atompp on 14 Feb 1990 ( !! OLD, for tests only )
- 14.00000   4.00000    900214                znucl, zion, pspdat
    5    3    2    0       770   0.00000      pspcod,pspxc,lmax,lloc,mmax,r2well
    1.000000E-06    2.357045E-02              r1 and al (Hamman grid)
    0   0.000   0.000    0   1.0529960        l,e99.0,e99.9,nproj,rcpsp
   0.00000000   0.00000000   0.00000000   0.00000000     rms, ekb1, ekb2, epsatm
    1   0.000   0.000    1   1.2715070        l,e99.0,e99.9,nproj,rcpsp
   0.00000000   0.00000000   0.00000000   0.00000000     rms, ekb1, ekb2, epsatm
    2   0.000   0.000    1   1.2715070        l,e99.0,e99.9,nproj,rcpsp
   0.00000000   0.00000000   0.00000000   0.00000000     rms, ekb1, ekb2, epsatm
    0.00000000000000    0.00000000000000    0.00000000000000   rchrg,fchrg,qchrg
  pspatm : epsatm=   28.17357484
         --- l  ekb(1:nproj) -->
             1   -2.083263
             2   -1.959803
 pspatm: atomic psp has been read  and splines computed

   4.50777197E+02                                ecore*ucvol(ha*bohr**3)
--------------------------------------------------------------------------------

_setup2: Arith. and geom. avg. npw (full set) are     187.750     187.749

================================================================================

     iter   Etot(hartree)      deltaE(h)  residm     vres2
 ETOT  1  -7.9101330998488    -7.910E+00 8.974E-04 3.322E+00
 ETOT  2  -7.9149351035504    -4.802E-03 6.125E-08 1.756E-01
 ETOT  3  -7.9151199208872    -1.848E-04 8.034E-07 2.361E-03
 ETOT  4  -7.9151214801402    -1.559E-06 1.000E-08 3.376E-06
 ETOT  5  -7.9151214826639    -2.524E-09 1.097E-11 2.076E-08
 ETOT  6  -7.9151214826839    -1.995E-11 1.253E-13 1.253E-10
 ETOT  7  -7.9151214826840    -9.237E-14 5.867E-16 8.401E-13
 ETOT  8  -7.9151214826839     8.438E-14 4.598E-18 3.018E-15
 ETOT  9  -7.9151214826839    -5.418E-14 3.360E-20 2.817E-18
 ETOT 10  -7.9151214826840    -7.283E-14 3.753E-22 2.249E-20
 ETOT 11  -7.9151214826839     6.306E-14 2.463E-24 1.639E-22
 ETOT 12  -7.9151214826840    -3.020E-14 3.387E-26 5.519E-26
 ETOT 13  -7.9151214826840     4.441E-15 2.328E-28 1.449E-26
 ETOT 14  -7.9151214826840    -8.882E-16 7.432E-29 2.781E-28

 At SCF step   14   max residual=  7.43E-29 < tolwfr=  1.00E-28 =>converged.

 Cartesian components of stress tensor (hartree/bohr^3)
  sigma(1 1)=  2.31262956E-04  sigma(3 2)=  0.00000000E+00
  sigma(2 2)=  2.31262956E-04  sigma(3 1)=  0.00000000E+00
  sigma(3 3)=  2.31262956E-04  sigma(2 1)=  0.00000000E+00

 Integrated electronic density in atomic spheres:
 ------------------------------------------------
 Atom  Sphere_radius  Integrated_density
    1        2.00000          1.85574910
    2        2.00000          1.85574910
================================================================================

 ----iterations are completed or convergence reached----

 Mean square residual over all n,k,spin=   30.812E-30; max=  74.317E-30
 reduced coordinates (array xred) for    2 atoms
       0.000000000000      0.000000000000      0.000000000000
       0.250000000000      0.250000000000      0.250000000000
 rms dE/dt=  0.0000E+00; max dE/dt=  0.0000E+00; dE/dt below (all hartree)
    1       0.000000000000      0.000000000000      0.000000000000
    2       0.000000000000      0.000000000000      0.000000000000

 cartesian coordinates (angstrom) at end:
    1      0.00000000000000     0.00000000000000     0.00000000000000
    2      1.35733954003335     1.35733954003335     1.35733954003335

 cartesian forces (hartree/bohr) at end:
    1     -0.00000000000000    -0.00000000000000    -0.00000000000000
    2     -0.00000000000000    -0.00000000000000    -0.00000000000000
 frms,max,avg= 0.0000000E+00 0.0000000E+00   0.000E+00  0.000E+00  0.000E+00 h/b

 cartesian forces (eV/Angstrom) at end:
    1     -0.00000000000000    -0.00000000000000    -0.00000000000000
    2     -0.00000000000000    -0.00000000000000    -0.00000000000000
 frms,max,avg= 0.0000000E+00 0.0000000E+00   0.000E+00  0.000E+00  0.000E+00 e/A
 length scales= 10.260000000000 10.260000000000 10.260000000000 bohr
              =  5.429358160133  5.429358160133  5.429358160133 angstroms
 prteigrs : about to open file t06o_DS1_EIG
 Fermi (or HOMO) energy (hartree) =  -0.01322   Average Vxc (hartree)=  -0.33573
 Eigenvalues (hartree) for nkpt=   2  k points:
 kpt#   1, nband=  4, wtk=  0.25000, kpt=  0.2500  0.2500  0.2500 (reduced coord)
  -0.39411   -0.12904   -0.01322   -0.01322
 prteigrs : prtvol=0 or 1, do not print more k-points.


--------------------------------------------------------------------------------
 Components of total free energy (in Hartree) :

    Kinetic energy  =  3.05362332130065E+00
    Hartree energy  =  5.50650654943474E-01
    XC energy       = -2.39657815962297E+00
    Ewald energy    = -8.40046478618609E+00
    PspCore energy  =  1.66947472379070E+00
    Loc. psp. energy= -2.16473569767564E+00
    NL   psp  energy= -2.27091539234079E-01
    >>>>>>>>> Etotal= -7.91512148268396E+00

 Other information on the energy :
    Total energy(eV)= -2.15381408963846E+02 ; Band energy (Ha)=  -1.3620868325E+00
--------------------------------------------------------------------------------



 Cartesian components of stress tensor (hartree/bohr^3)
  sigma(1 1)=  2.31262956E-04  sigma(3 2)=  0.00000000E+00
  sigma(2 2)=  2.31262956E-04  sigma(3 1)=  0.00000000E+00
  sigma(3 3)=  2.31262956E-04  sigma(2 1)=  0.00000000E+00

-Cartesian components of stress tensor (GPa)         [Pressure= -6.8040E+00 GPa]
- sigma(1 1)=  6.80398993E+00  sigma(3 2)=  0.00000000E+00
- sigma(2 2)=  6.80398993E+00  sigma(3 1)=  0.00000000E+00
- sigma(3 3)=  6.80398993E+00  sigma(2 1)=  0.00000000E+00

================================================================================
== DATASET  2 ==================================================================
-   nproc =    1

 mkfilename : getwfk/=0, take file _WFK from output of DATASET   1.

 mkfilename : getden/=0, take file _DEN from output of DATASET   1.

 Exchange-correlation functional for the present dataset will be:
  LDA: old Teter (4/91) fit to Ceperley-Alder data - ixc=3

 Real(R)+Recip(G) space primitive vectors, cartesian coordinates (Bohr,Bohr^-1):
 R(1)=  0.0000000  5.1300000  5.1300000  G(1)= -0.0974659  0.0974659  0.0974659
 R(2)=  5.1300000  0.0000000  5.1300000  G(2)=  0.0974659 -0.0974659  0.0974659
 R(3)=  5.1300000  5.1300000  0.0000000  G(3)=  0.0974659  0.0974659 -0.0974659
 Unit cell volume ucvol=  2.7001139E+02 bohr^3
 Angles (23,13,12)=  6.00000000E+01  6.00000000E+01  6.00000000E+01 degrees

 getcut: wavevector=  0.0000  0.0000  0.0000  ngfft=  16  16  16
         ecut(hartree)=      6.000   => boxcut(ratio)=   2.00008
--------------------------------------------------------------------------------

-inwffil : will read wavefunctions from disk file t06o_DS1_WFK

================================================================================
 prteigrs : about to open file t06o_DS2_EIG
 Non-SCF case, kpt    1 (  0.25000  0.25000  0.25000), residuals and eigenvalues=
  1.81E-29  4.00E-29  2.70E-29  7.43E-29
 -3.9411E-01 -1.2904E-01 -1.3224E-02 -1.3224E-02
 Non-SCF case, kpt    2 (  0.00000  0.00000  0.25000), residuals and eigenvalues=
  2.66E-29  8.00E-29  5.78E-27  2.03E-27
 -3.9411E-01 -1.2904E-01 -1.3224E-02 -1.3224E-02
  prteigrs : nnsclo,ikpt=   30    2 max resid (incl. the buffer)=  5.77716E-27
 Non-SCF case, kpt    3 (  0.00000  0.25000  0.00000), residuals and eigenvalues=
  7.69E-30  4.35E-29  8.29E-27  8.28E-27
 -3.9411E-01 -1.2904E-01 -1.3224E-02 -1.3224E-02
  prteigrs : nnsclo,ikpt=   30    3 max resid (incl. the buffer)=  8.28577E-27
 Non-SCF case, kpt    4 (  0.25000  0.00000  0.00000), residuals and eigenvalues=
  3.97E-29  8.02E-29  2.03E-27  5.75E-27
 -3.9411E-01 -1.2904E-01 -1.3224E-02 -1.3224E-02
  prteigrs : nnsclo,ikpt=   30    4 max resid (incl. the buffer)=  5.75335E-27
 Non-SCF case, kpt    5 (  0.50000  0.50000  0.25000), residuals and eigenvalues=
  8.14E-29  5.37E-29  1.90E-28  9.04E-30
 -3.2315E-01 -2.1870E-01 -1.1618E-01 -6.6831E-02
  prteigrs : nnsclo,ikpt=   30    5 max resid (incl. the buffer)=  1.90039E-28
 Non-SCF case, kpt    6 (  0.50000  0.25000  0.50000), residuals and eigenvalues=
  6.01E-29  8.86E-30  8.09E-29  1.35E-28
 -3.2315E-01 -2.1870E-01 -1.1618E-01 -6.6831E-02
  prteigrs : nnsclo,ikpt=   30    6 max resid (incl. the buffer)=  1.35032E-28
 Non-SCF case, kpt    7 (  0.25000  0.50000  0.50000), residuals and eigenvalues=
  2.19E-29  2.35E-29  2.36E-29  2.74E-29
 -3.2315E-01 -2.1870E-01 -1.1618E-01 -6.6831E-02
 Non-SCF case, kpt    8 (  0.50000  0.25000  0.00000), residuals and eigenvalues=
  8.18E-29  1.29E-29  4.50E-29  2.23E-29
 -3.2315E-01 -2.1870E-01 -1.1618E-01 -6.6831E-02
 Non-SCF case, kpt    9 (  0.25000  0.00000  0.50000), residuals and eigenvalues=
  4.26E-29  9.97E-29  4.07E-29  9.11E-28
 -3.2315E-01 -2.1870E-01 -1.1618E-01 -6.6831E-02
  prteigrs : nnsclo,ikpt=   30    9 max resid (incl. the buffer)=  9.11184E-28
 Non-SCF case, kpt   10 (  0.00000  0.50000  0.25000), residuals and eigenvalues=
  9.19E-29  2.35E-29  1.70E-28  8.78E-28
 -3.2315E-01 -2.1870E-01 -1.1618E-01 -6.6831E-02
  prteigrs : nnsclo,ikpt=   30   10 max resid (incl. the buffer)=  8.78177E-28
 Non-SCF case, kpt   11 (  0.00000  0.25000  0.50000), residuals and eigenvalues=
  2.90E-29  4.69E-29  1.11E-28  1.85E-29
 -3.2315E-01 -2.1870E-01 -1.1618E-01 -6.6831E-02
  prteigrs : nnsclo,ikpt=   30   11 max resid (incl. the buffer)=  1.10598E-28
 Non-SCF case, kpt   12 (  0.25000  0.50000  0.00000), residuals and eigenvalues=
  7.03E-29  2.09E-29  1.01E-28  5.34E-28
 -3.2315E-01 -2.1870E-01 -1.1618E-01 -6.6831E-02
  prteigrs : nnsclo,ikpt=   30   12 max resid (incl. the buffer)=  5.34071E-28
 Non-SCF case, kpt   13 (  0.50000  0.00000  0.25000), residuals and eigenvalues=
  8.74E-29  1.36E-29  1.82E-28  9.53E-28
 -3.2315E-01 -2.1870E-01 -1.1618E-01 -6.6831E-02
  prteigrs : nnsclo,ikpt=   30   13 max resid (incl. the buffer)=  9.53143E-28
 Non-SCF case, kpt   14 (  0.25000  0.25000 -0.25000), residuals and eigenvalues=
  1.68E-29  1.84E-29  5.59E-29  6.29E-28
 -3.2315E-01 -2.1870E-01 -1.1618E-01 -6.6831E-02
  prteigrs : nnsclo,ikpt=   30   14 max resid (incl. the buffer)=  6.28871E-28
 Non-SCF case, kpt   15 (  0.25000 -0.25000  0.25000), residuals and eigenvalues=
  2.38E-29  4.47E-29  5.67E-29  2.11E-27
 -3.2315E-01 -2.1870E-01 -1.1618E-01 -6.6831E-02
  prteigrs : nnsclo,ikpt=   30   15 max resid (incl. the buffer)=  2.10769E-27
 Non-SCF case, kpt   16 ( -0.25000  0.25000  0.25000), residuals and eigenvalues=
  4.67E-29  8.44E-29  4.83E-29  7.20E-28
 -3.2315E-01 -2.1870E-01 -1.1618E-01 -6.6831E-02
  prteigrs : nnsclo,ikpt=   30   16 max resid (incl. the buffer)=  7.20394E-28

 Integrated electronic density in atomic spheres:
 ------------------------------------------------
 Atom  Sphere_radius  Integrated_density
    1        2.00000          1.85574910
    2        2.00000          1.85574910
================================================================================

 ----iterations are completed or convergence reached----

 Mean square residual over all n,k,spin=   65.240E-29; max=  82.858E-28
 reduced coordinates (array xred) for    2 atoms
       0.000000000000      0.000000000000      0.000000000000
       0.250000000000      0.250000000000      0.250000000000

 cartesian coordinates (angstrom) at end:
    1      0.00000000000000     0.00000000000000     0.00000000000000
    2      1.35733954003335     1.35733954003335     1.35733954003335
 length scales= 10.260000000000 10.260000000000 10.260000000000 bohr
              =  5.429358160133  5.429358160133  5.429358160133 angstroms
 prteigrs : about to open file t06o_DS2_EIG
 Eigenvalues (hartree) for nkpt=  16  k points:
 kpt#   1, nband=  4, wtk=  1.00000, kpt=  0.2500  0.2500  0.2500 (reduced coord)
  -0.39411   -0.12904   -0.01322   -0.01322
 kpt#   2, nband=  4, wtk=  1.00000, kpt=  0.0000  0.0000  0.2500 (reduced coord)
  -0.39411   -0.12904   -0.01322   -0.01322
 kpt#   3, nband=  4, wtk=  1.00000, kpt=  0.0000  0.2500  0.0000 (reduced coord)
  -0.39411   -0.12904   -0.01322   -0.01322
 kpt#   4, nband=  4, wtk=  1.00000, kpt=  0.2500  0.0000  0.0000 (reduced coord)
  -0.39411   -0.12904   -0.01322   -0.01322
 kpt#   5, nband=  4, wtk=  1.00000, kpt=  0.5000  0.5000  0.2500 (reduced coord)
  -0.32315   -0.21870   -0.11618   -0.06683
 kpt#   6, nband=  4, wtk=  1.00000, kpt=  0.5000  0.2500  0.5000 (reduced coord)
  -0.32315   -0.21870   -0.11618   -0.06683
 kpt#   7, nband=  4, wtk=  1.00000, kpt=  0.2500  0.5000  0.5000 (reduced coord)
  -0.32315   -0.21870   -0.11618   -0.06683
 kpt#   8, nband=  4, wtk=  1.00000, kpt=  0.5000  0.2500  0.0000 (reduced coord)
  -0.32315   -0.21870   -0.11618   -0.06683
 kpt#   9, nband=  4, wtk=  1.00000, kpt=  0.2500  0.0000  0.5000 (reduced coord)
  -0.32315   -0.21870   -0.11618   -0.06683
 kpt#  10, nband=  4, wtk=  1.00000, kpt=  0.0000  0.5000  0.2500 (reduced coord)
  -0.32315   -0.21870   -0.11618   -0.06683
 kpt#  11, nband=  4, wtk=  1.00000, kpt=  0.0000  0.2500  0.5000 (reduced coord)
  -0.32315   -0.21870   -0.11618   -0.06683
 kpt#  12, nband=  4, wtk=  1.00000, kpt=  0.2500  0.5000  0.0000 (reduced coord)
  -0.32315   -0.21870   -0.11618   -0.06683
 kpt#  13, nband=  4, wtk=  1.00000, kpt=  0.5000  0.0000  0.2500 (reduced coord)
  -0.32315   -0.21870   -0.11618   -0.06683
 kpt#  14, nband=  4, wtk=  1.00000, kpt=  0.2500  0.2500 -0.2500 (reduced coord)
  -0.32315   -0.21870   -0.11618   -0.06683
 kpt#  15, nband=  4, wtk=  1.00000, kpt=  0.2500 -0.2500  0.2500 (reduced coord)
  -0.32315   -0.21870   -0.11618   -0.06683
 kpt#  16, nband=  4, wtk=  1.00000, kpt= -0.2500  0.2500  0.2500 (reduced coord)
  -0.32315   -0.21870   -0.11618   -0.06683

================================================================================
== DATASET  3 ==================================================================
-   nproc =    1

 mkfilename : getwfk/=0, take file _WFK from output of DATASET   2.

 mkfilename : getddk/=0, take file _1WF from output of DATASET   3.

 mkfilename : getden/=0, take file _DEN from output of DATASET   1.

 Exchange-correlation functional for the present dataset will be:
  LDA: old Teter (4/91) fit to Ceperley-Alder data - ixc=3

 Real(R)+Recip(G) space primitive vectors, cartesian coordinates (Bohr,Bohr^-1):
 R(1)=  0.0000000  5.1300000  5.1300000  G(1)= -0.0974659  0.0974659  0.0974659
 R(2)=  5.1300000  0.0000000  5.1300000  G(2)=  0.0974659 -0.0974659  0.0974659
 R(3)=  5.1300000  5.1300000  0.0000000  G(3)=  0.0974659  0.0974659 -0.0974659
 Unit cell volume ucvol=  2.7001139E+02 bohr^3
 Angles (23,13,12)=  6.00000000E+01  6.00000000E+01  6.00000000E+01 degrees

 getcut: wavevector=  0.0000  0.0000  0.0000  ngfft=  16  16  16
         ecut(hartree)=      6.000   => boxcut(ratio)=   2.00008
--------------------------------------------------------------------------------

-inwffil : will read wavefunctions from disk file t06o_DS2_WFK

 ==>  initialize data related to q vector <== 

 The list of irreducible perturbations for this q vector is:
    1)    idir= 1    ipert=   3

================================================================================

--------------------------------------------------------------------------------
 Perturbation wavevector (in red.coord.)   0.000000  0.000000  0.000000
 Perturbation : derivative vs k along direction   1
 The set of symmetries contains only one element for this perturbation.
 symkpt : not enough symmetry to change the number of k points.

--------------------------------------------------------------------------------

-inwffil : will read wavefunctions from disk file t06o_DS2_WFK
--------------------------------------------------------------------------------

 Initialisation of the first-order wave-functions :
  ireadwf=   0

     iter   2DEtotal(Ha)        deltaE(Ha) residm    vres2
-ETOT  1  -10.702280486239     -1.070E+01 6.087E-02 0.000E+00
 ETOT  2  -10.723963031629     -2.168E-02 4.901E-04 0.000E+00
 ETOT  3  -10.724081611891     -1.186E-04 2.949E-06 0.000E+00
 ETOT  4  -10.724082596011     -9.841E-07 3.069E-08 0.000E+00
 ETOT  5  -10.724082605674     -9.663E-09 2.600E-10 0.000E+00
 ETOT  6  -10.724082605780     -1.059E-10 3.741E-12 0.000E+00
 ETOT  7  -10.724082605781     -1.226E-12 3.309E-14 0.000E+00
 ETOT  8  -10.724082605781      5.684E-14 5.126E-16 0.000E+00
 ETOT  9  -10.724082605781     -8.882E-15 4.380E-18 0.000E+00
 ETOT 10  -10.724082605781     -1.776E-15 7.241E-20 0.000E+00
 ETOT 11  -10.724082605781      1.066E-14 5.834E-22 0.000E+00
 ETOT 12  -10.724082605781     -4.796E-14 1.046E-23 0.000E+00
 ETOT 13  -10.724082605781      3.197E-14 7.782E-26 0.000E+00
 ETOT 14  -10.724082605781      1.776E-15 1.535E-27 0.000E+00
 ETOT 15  -10.724082605781      1.776E-15 9.697E-29 0.000E+00

 At SCF step   15   max residual=  9.70E-29 < tolwfr=  1.00E-28 =>converged.
================================================================================

 ----iterations are completed or convergence reached----

 Mean square residual over all n,k,spin=   39.470E-30; max=  96.966E-30
 dfpt_looppert : ek2=    1.8001398769E+01
          f-sum rule ratio=    1.2714040728E+00
 prteigrs : about to open file t06_1WF1_EIG
 Expectation of eigenvalue derivatives (hartree) for nkpt=  16  k points:
  (in case of degenerate eigenvalues, averaged derivative)
 kpt#   1, nband=  4, wtk=  0.06250, kpt=  0.2500  0.2500  0.2500 (reduced coord)
   0.07615   -0.21987   -0.04173   -0.04173
 prteigrs : prtvol=0 or 1, do not print more k-points.


 Eight components of 2nd-order total energy (hartree) are
 1,2,3: 0th-order hamiltonian combined with 1st-order wavefunctions
     kin0=   4.04543837E+01 eigvalue=   3.21760572E+00  local=  -3.05438456E+01
 4,5,6: 1st-order hamiltonian combined with 1st and 0th-order wfs
     kin1=  -2.28870517E+01  Hartree=   0.00000000E+00     xc=   0.00000000E+00
 7,8,9: eventually, occupation + non-local contributions
    edocc=   0.00000000E+00     enl0=  -2.40406123E+00   enl1=   1.43888650E+00
 1-9 gives the relaxation energy (to be shifted if some occ is /=2.0)
   erelax=  -1.07240826E+01
  No Ewald or frozen-wf contrib.: the relaxation energy is the total one
 2DEtotal=   -0.1072408261E+02 Ha. Also 2DEtotal=   -0.291817128332E+03 eV
    (  non-var. 2DEtotal :   -1.0724082606E+01 Ha)
================================================================================

 ---- first-order wavefunction calculations are completed ----


 Total localisation tensor (bohr^2) in cartesian coordinates
  WARNING : still subject to testing - especially symmetries.
      direction              matrix element
   alpha     beta       real part   imaginary part
     1        1       0.0000000000    0.0000000000
     1        2       0.0000000000    0.0000000000
     1        3       0.0000000000    0.0000000000
     2        1       0.0000000000    0.0000000000
     2        2       2.9546293061    0.0000000000
     2        3       2.9546293061    0.0000000000
     3        1       0.0000000000    0.0000000000
     3        2       2.9546293061    0.0000000000
     3        3       2.9546293061    0.0000000000

 WARNING : Localization tensor calculation (this does not apply to other properties).
  Not all d/dk perturbations were computed. So the localization tensor in reciprocal space is incomplete,
  and transformation to cartesian coordinates may be wrong.

 respfn : d/dk was computed, but no 2DTE, so no DDB output.

================================================================================
== DATASET  4 ==================================================================
-   nproc =    1

 mkfilename : getwfk/=0, take file _WFK from output of DATASET   2.

 mkfilename : getddk/=0, take file _1WF from output of DATASET   3.

 Exchange-correlation functional for the present dataset will be:
  LDA: old Teter (4/91) fit to Ceperley-Alder data - ixc=3

 Real(R)+Recip(G) space primitive vectors, cartesian coordinates (Bohr,Bohr^-1):
 R(1)=  0.0000000  5.1300000  5.1300000  G(1)= -0.0974659  0.0974659  0.0974659
 R(2)=  5.1300000  0.0000000  5.1300000  G(2)=  0.0974659 -0.0974659  0.0974659
 R(3)=  5.1300000  5.1300000  0.0000000  G(3)=  0.0974659  0.0974659 -0.0974659
 Unit cell volume ucvol=  2.7001139E+02 bohr^3
 Angles (23,13,12)=  6.00000000E+01  6.00000000E+01  6.00000000E+01 degrees

 getcut: wavevector=  0.0000  0.0000  0.0000  ngfft=  16  16  16
         ecut(hartree)=      6.000   => boxcut(ratio)=   2.00008
--------------------------------------------------------------------------------

-inwffil : will read wavefunctions from disk file t06o_DS2_WFK

 ==>  initialize data related to q vector <== 

 The list of irreducible perturbations for this q vector is:
    1)    idir= 1    ipert=   1
    2)    idir= 1    ipert=   4

================================================================================

 The perturbation idir=   2  ipert=   1 is
 symmetric of a previously calculated perturbation.
 So, its SCF calculation is not needed.


 The perturbation idir=   3  ipert=   1 is
 symmetric of a previously calculated perturbation.
 So, its SCF calculation is not needed.


 The perturbation idir=   1  ipert=   2 is
 symmetric of a previously calculated perturbation.
 So, its SCF calculation is not needed.


 The perturbation idir=   2  ipert=   2 is
 symmetric of a previously calculated perturbation.
 So, its SCF calculation is not needed.


 The perturbation idir=   3  ipert=   2 is
 symmetric of a previously calculated perturbation.
 So, its SCF calculation is not needed.


 The perturbation idir=   2  ipert=   4 is
 symmetric of a previously calculated perturbation.
 So, its SCF calculation is not needed.


 The perturbation idir=   3  ipert=   4 is
 symmetric of a previously calculated perturbation.
 So, its SCF calculation is not needed.


--------------------------------------------------------------------------------
 Perturbation wavevector (in red.coord.)   0.000000  0.000000  0.000000
 Perturbation : displacement of atom   1   along direction   1
 Found     2 symmetries that leave the perturbation invariant.
 symkpt : the number of k-points, thanks to the symmetries,
 is reduced to    10 .

--------------------------------------------------------------------------------

-inwffil : will read wavefunctions from disk file t06o_DS2_WFK
--------------------------------------------------------------------------------

 Initialisation of the first-order wave-functions :
  ireadwf=   0

     iter   2DEtotal(Ha)        deltaE(Ha) residm    vres2
-ETOT  1   16.251319711085     -5.421E+01 7.676E-02 2.467E+03
 ETOT  2   8.8764171063551     -7.375E+00 2.195E-02 4.038E+02
 ETOT  3   7.3673263896779     -1.509E+00 1.540E-03 4.984E-01
 ETOT  4   7.3653247135678     -2.002E-03 6.427E-06 2.150E-02
 ETOT  5   7.3652530533050     -7.166E-05 3.730E-07 9.381E-05
 ETOT  6   7.3652526385764     -4.147E-07 1.777E-09 1.776E-05
 ETOT  7   7.3652525569516     -8.162E-08 7.952E-11 1.183E-07
 ETOT  8   7.3652525564836     -4.680E-10 9.310E-13 2.567E-10

 At SCF step    8   max residual=  9.31E-13 < tolwfr=  1.00E-12 =>converged.
-open ddk wf file :t06o_DS3_1WF7
================================================================================

 ----iterations are completed or convergence reached----

 Mean square residual over all n,k,spin=   46.426E-14; max=  93.104E-14

 Thirteen components of 2nd-order total energy (hartree) are
 1,2,3: 0th-order hamiltonian combined with 1st-order wavefunctions
     kin0=   7.40109747E+01 eigvalue=   6.66602000E+00  local=  -1.71257515E+01
 4,5,6: 1st-order hamiltonian combined with 1st and 0th-order wfs
 loc psp =  -1.19451744E+02  Hartree=   1.42389301E+01     xc=  -6.40810783E+00
 note that "loc psp" includes a xc core correction that could be resolved
 7,8,9: eventually, occupation + non-local contributions
    edocc=   0.00000000E+00     enl0=  -8.28434441E+00   enl1=  -6.74369646E+00
 1-9 gives the relaxation energy (to be shifted if some occ is /=2.0)
   erelax=  -6.30977195E+01
 10,11,12 Non-relaxation  contributions : frozen-wavefunctions and Ewald
 fr.local=   5.46813329E+01 fr.nonlo=   2.71718625E+00  Ewald=   1.30644529E+01
 13,14 Frozen wf xc core corrections (1) and (2)
 frxc 1  =   0.00000000E+00  frxc 2 =   0.00000000E+00
 Resulting in :
 2DEtotal=    0.7365252556E+01 Ha. Also 2DEtotal=    0.200418714540E+03 eV
    (2DErelax=   -6.3097719494E+01 Ha. 2DEnonrelax=    7.0462972050E+01 Ha)
    (  non-var. 2DEtotal :    7.3652517715E+00 Ha)


--------------------------------------------------------------------------------
 Perturbation wavevector (in red.coord.)   0.000000  0.000000  0.000000
 Perturbation : homogeneous electric field along direction   1
 The set of symmetries contains only one element for this perturbation.
 symkpt : not enough symmetry to change the number of k points.

--------------------------------------------------------------------------------

-inwffil : will read wavefunctions from disk file t06o_DS2_WFK
--------------------------------------------------------------------------------

 Initialisation of the first-order wave-functions :
  ireadwf=   0
-dfpt_looppert : read the wavefunctions from file: t06o_DS3_1WF7

     iter   2DEtotal(Ha)        deltaE(Ha) residm    vres2
-ETOT  1  -514.13112912181     -5.141E+02 3.738E+00 2.326E+03
 ETOT  2  -522.97776049346     -8.847E+00 3.511E-02 5.221E+02
 ETOT  3  -525.02604484074     -2.048E+00 1.782E-03 6.997E-01
 ETOT  4  -525.02768422977     -1.639E-03 4.166E-05 2.826E-01
 ETOT  5  -525.02900548254     -1.321E-03 1.902E-06 1.664E-03
 ETOT  6  -525.02901186769     -6.385E-06 1.268E-08 3.778E-05
 ETOT  7  -525.02901199396     -1.263E-07 1.020E-10 1.736E-06
 ETOT  8  -525.02901200033     -6.365E-09 4.698E-12 7.192E-08
 ETOT  9  -525.02901200060     -2.694E-10 9.613E-13 9.550E-10

 At SCF step    9   max residual=  9.61E-13 < tolwfr=  1.00E-12 =>converged.
-open ddk wf file :t06o_DS3_1WF7
================================================================================

 ----iterations are completed or convergence reached----

 Mean square residual over all n,k,spin=   48.445E-14; max=  96.134E-14

 Seven components of 2nd-order total energy (hartree) are
 1,2,3: 0th-order hamiltonian combined with 1st-order wavefunctions
     kin0=   2.42698085E+03 eigvalue=   1.41588907E+02  local=  -1.91171832E+03
 4,5,6: 1st-order hamiltonian combined with 1st and 0th-order wfs
    dotwf=  -1.05005804E+03  Hartree=   5.26879987E+01     xc=  -3.80404228E+01
 7,8,9: eventually, occupation + non-local contributions
    edocc=   0.00000000E+00     enl0=  -1.46469990E+02   enl1=   0.00000000E+00
 1-9 gives the relaxation energy (to be shifted if some occ is /=2.0)
   erelax=  -5.25029012E+02
  No Ewald or frozen-wf contrib.: the relaxation energy is the total one
 2DEtotal=   -0.5250290120E+03 Ha. Also 2DEtotal=   -0.142867659832E+05 eV
    (  non-var. 2DEtotal :   -5.2502901904E+02 Ha)
================================================================================

 ---- first-order wavefunction calculations are completed ----


 ==> Compute Derivative Database <==
  
  2nd-order matrix (non-cartesian coordinates, masses not included,
   asr not included )
     j1       j2             matrix element
  dir pert dir pert     real part     imaginary part
  
   1    1   1    1         7.3652518681         0.0000000000
   1    1   2    1         3.6826259341         0.0000000000
   1    1   3    1         3.6826259341         0.0000000000
   1    1   1    2        -7.3640775504        -0.0000000000
   1    1   2    2        -3.6820387752        -0.0000000000
   1    1   3    2        -3.6820387752        -0.0000000000
   1    1   1    4       -31.9536532361         0.0000000000
   1    1   2    4         0.0000000000         0.0000000000
   1    1   3    4         0.0000000000         0.0000000000
  
   2    1   1    1         3.6826259341         0.0000000000
   2    1   2    1         7.3652518681         0.0000000000
   2    1   3    1         3.6826259341         0.0000000000
   2    1   1    2        -3.6820387752        -0.0000000000
   2    1   2    2        -7.3640775504        -0.0000000000
   2    1   3    2        -3.6820387752        -0.0000000000
   2    1   1    4         0.0000000000         0.0000000000
   2    1   2    4       -31.9536532361         0.0000000000
   2    1   3    4        -0.0000000000         0.0000000000
  
   3    1   1    1         3.6826259341         0.0000000000
   3    1   2    1         3.6826259341         0.0000000000
   3    1   3    1         7.3652518681         0.0000000000
   3    1   1    2        -3.6820387752        -0.0000000000
   3    1   2    2        -3.6820387752        -0.0000000000
   3    1   3    2        -7.3640775504         0.0000000000
   3    1   1    4         0.0000000000         0.0000000000
   3    1   2    4        -0.0000000000         0.0000000000
   3    1   3    4       -31.9536532361         0.0000000000
  
   1    2   1    1        -7.3640775504         0.0000000000
   1    2   2    1        -3.6820387752         0.0000000000
   1    2   3    1        -3.6820387752         0.0000000000
   1    2   1    2         7.3652518681         0.0000000000
   1    2   2    2         3.6826259341         0.0000000000
   1    2   3    2         3.6826259341         0.0000000000
   1    2   1    4       -31.9536532361         0.0000000000
   1    2   2    4         0.0000000000         0.0000000000
   1    2   3    4         0.0000000000         0.0000000000
  
   2    2   1    1        -3.6820387752         0.0000000000
   2    2   2    1        -7.3640775504         0.0000000000
   2    2   3    1        -3.6820387752         0.0000000000
   2    2   1    2         3.6826259341         0.0000000000
   2    2   2    2         7.3652518681         0.0000000000
   2    2   3    2         3.6826259341         0.0000000000
   2    2   1    4        -0.0000000000         0.0000000000
   2    2   2    4       -31.9536532361         0.0000000000
   2    2   3    4         0.0000000000         0.0000000000
  
   3    2   1    1        -3.6820387752         0.0000000000
   3    2   2    1        -3.6820387752         0.0000000000
   3    2   3    1        -7.3640775504        -0.0000000000
   3    2   1    2         3.6826259341         0.0000000000
   3    2   2    2         3.6826259341         0.0000000000
   3    2   3    2         7.3652518681         0.0000000000
   3    2   1    4        -0.0000000000         0.0000000000
   3    2   2    4         0.0000000000         0.0000000000
   3    2   3    4       -31.9536532361         0.0000000000
  
   1    4   1    1       -31.9536526930         0.0000000000
   1    4   2    1         0.0000000000         0.0000000000
   1    4   3    1         0.0000000000         0.0000000000
   1    4   1    2       -31.9536526930         0.0000000000
   1    4   2    2        -0.0000000000         0.0000000000
   1    4   3    2        -0.0000000000         0.0000000000
   1    4   1    4      -525.0290190397         0.0000000000
   1    4   2    4       175.0096730132         0.0000000000
   1    4   3    4       175.0096730132         0.0000000000
  
   2    4   1    1         0.0000000000         0.0000000000
   2    4   2    1       -31.9536526930         0.0000000000
   2    4   3    1        -0.0000000000         0.0000000000
   2    4   1    2         0.0000000000         0.0000000000
   2    4   2    2       -31.9536526930         0.0000000000
   2    4   3    2         0.0000000000         0.0000000000
   2    4   1    4       175.0096730132         0.0000000000
   2    4   2    4      -525.0290190397         0.0000000000
   2    4   3    4       175.0096730132         0.0000000000
  
   3    4   1    1         0.0000000000         0.0000000000
   3    4   2    1         0.0000000000         0.0000000000
   3    4   3    1       -31.9536526930         0.0000000000
   3    4   1    2         0.0000000000         0.0000000000
   3    4   2    2         0.0000000000         0.0000000000
   3    4   3    2       -31.9536526930         0.0000000000
   3    4   1    4       175.0096730132         0.0000000000
   3    4   2    4       175.0096730132         0.0000000000
   3    4   3    4      -525.0290190397         0.0000000000
  
  
  Dynamical matrix, in cartesian coordinates,
   if specified in the inputs, asr has been imposed
     j1       j2             matrix element
  dir pert dir pert     real part    imaginary part
  
   1    1   1    1         0.1399338803         0.0000000000
   1    1   2    1        -0.0000000000         0.0000000000
   1    1   3    1        -0.0000000000         0.0000000000
   1    1   1    2        -0.1399115692        -0.0000000000
   1    1   2    2         0.0000000000         0.0000000000
   1    1   3    2         0.0000000000        -0.0000000000
  
   2    1   1    1        -0.0000000000         0.0000000000
   2    1   2    1         0.1399338803         0.0000000000
   2    1   3    1        -0.0000000000         0.0000000000
   2    1   1    2         0.0000000000         0.0000000000
   2    1   2    2        -0.1399115692        -0.0000000000
   2    1   3    2        -0.0000000000        -0.0000000000
  
   3    1   1    1        -0.0000000000         0.0000000000
   3    1   2    1        -0.0000000000         0.0000000000
   3    1   3    1         0.1399338803         0.0000000000
   3    1   1    2         0.0000000000        -0.0000000000
   3    1   2    2        -0.0000000000        -0.0000000000
   3    1   3    2        -0.1399115692         0.0000000000
  
   1    2   1    1        -0.1399115692         0.0000000000
   1    2   2    1         0.0000000000        -0.0000000000
   1    2   3    1         0.0000000000         0.0000000000
   1    2   1    2         0.1399338803         0.0000000000
   1    2   2    2        -0.0000000000         0.0000000000
   1    2   3    2        -0.0000000000         0.0000000000
  
   2    2   1    1         0.0000000000        -0.0000000000
   2    2   2    1        -0.1399115692         0.0000000000
   2    2   3    1         0.0000000000         0.0000000000
   2    2   1    2        -0.0000000000         0.0000000000
   2    2   2    2         0.1399338803         0.0000000000
   2    2   3    2        -0.0000000000         0.0000000000
  
   3    2   1    1         0.0000000000         0.0000000000
   3    2   2    1         0.0000000000         0.0000000000
   3    2   3    1        -0.1399115692        -0.0000000000
   3    2   1    2        -0.0000000000         0.0000000000
   3    2   2    2        -0.0000000000         0.0000000000
   3    2   3    2         0.1399338803         0.0000000000
  
  Dielectric tensor, in cartesian coordinates,
     j1       j2             matrix element
  dir pert dir pert     real part    imaginary part
  
   1    4   1    4        22.7182491610        -0.0000000000
   1    4   2    4        -0.0000000000        -0.0000000000
   1    4   3    4        -0.0000000000        -0.0000000000
  
   2    4   1    4        -0.0000000000        -0.0000000000
   2    4   2    4        22.7182491610        -0.0000000000
   2    4   3    4        -0.0000000000        -0.0000000000
  
   3    4   1    4        -0.0000000000        -0.0000000000
   3    4   2    4        -0.0000000000        -0.0000000000
   3    4   3    4        22.7182491610        -0.0000000000
  
  Effective charges, in cartesian coordinates,
  (from electric field response) 
   if specified in the inputs, asr has been imposed
     j1       j2             matrix element
  dir pert dir pert     real part    imaginary part
  
   1    1   1    4        -1.0855818624         0.0000000000
   2    1   1    4        -0.0000000000         0.0000000000
   3    1   1    4         0.0000000000         0.0000000000
   1    2   1    4        -1.0855818624         0.0000000000
   2    2   1    4        -0.0000000000         0.0000000000
   3    2   1    4         0.0000000000         0.0000000000
  
   1    1   2    4        -0.0000000000         0.0000000000
   2    1   2    4        -1.0855818624         0.0000000000
   3    1   2    4         0.0000000000         0.0000000000
   1    2   2    4         0.0000000000         0.0000000000
   2    2   2    4        -1.0855818624         0.0000000000
   3    2   2    4        -0.0000000000         0.0000000000
  
   1    1   3    4        -0.0000000000         0.0000000000
   2    1   3    4         0.0000000000         0.0000000000
   3    1   3    4        -1.0855818624         0.0000000000
   1    2   3    4         0.0000000000         0.0000000000
   2    2   3    4        -0.0000000000         0.0000000000
   3    2   3    4        -1.0855818624         0.0000000000
  
  Effective charges, in cartesian coordinates,
  (from phonon response) 
   if specified in the inputs, asr has been imposed
     j1       j2             matrix element
  dir pert dir pert     real part    imaginary part
  
   1    4   1    1        -1.0855817759         0.0000000000
   2    4   1    1         0.0000000000         0.0000000000
   3    4   1    1         0.0000000000         0.0000000000
  
   1    4   2    1        -0.0000000000         0.0000000000
   2    4   2    1        -1.0855817759         0.0000000000
   3    4   2    1        -0.0000000000         0.0000000000
  
   1    4   3    1         0.0000000000         0.0000000000
   2    4   3    1         0.0000000000         0.0000000000
   3    4   3    1        -1.0855817759         0.0000000000
  
   1    4   1    2        -1.0855817759         0.0000000000
   2    4   1    2         0.0000000000         0.0000000000
   3    4   1    2         0.0000000000         0.0000000000
  
   1    4   2    2         0.0000000000         0.0000000000
   2    4   2    2        -1.0855817759         0.0000000000
   3    4   2    2         0.0000000000         0.0000000000
  
   1    4   3    2         0.0000000000         0.0000000000
   2    4   3    2         0.0000000000         0.0000000000
   3    4   3    2        -1.0855817759         0.0000000000
  
  
  

  Phonon wavevector (reduced coordinates) :  0.00000  0.00000  0.00000
 Phonon energies in Hartree :
   2.087543E-05  2.087543E-05  2.087543E-05  2.337944E-03  2.337944E-03
   2.337944E-03
 Phonon frequencies in cm-1    :
-  4.581627E+00  4.581627E+00  4.581628E+00  5.131194E+02  5.131194E+02
-  5.131194E+02

  Phonon at Gamma, with non-analyticity in the
  direction (cartesian coordinates)  1.00000  0.00000  0.00000
 Phonon energies in Hartree :
   2.087543E-05  2.087543E-05  3.078081E-04  2.337944E-03  2.337944E-03
   2.337944E-03
 Phonon frequencies in cm-1    :
-  4.581627E+00  4.581627E+00  6.755608E+01  5.131194E+02  5.131194E+02
-  5.131194E+02

  Phonon at Gamma, with non-analyticity in the
  direction (cartesian coordinates)  0.00000  1.00000  0.00000
 Phonon energies in Hartree :
   2.087543E-05  2.087543E-05  3.078081E-04  2.337944E-03  2.337944E-03
   2.337944E-03
 Phonon frequencies in cm-1    :
-  4.581627E+00  4.581628E+00  6.755608E+01  5.131194E+02  5.131194E+02
-  5.131194E+02

  Phonon at Gamma, with non-analyticity in the
  direction (cartesian coordinates)  0.00000  0.00000  1.00000
 Phonon energies in Hartree :
   2.087543E-05  2.087543E-05  3.078081E-04  2.337944E-03  2.337944E-03
   2.337944E-03
 Phonon frequencies in cm-1    :
-  4.581627E+00  4.581628E+00  6.755608E+01  5.131194E+02  5.131194E+02
-  5.131194E+02

== END DATASET(S) ==============================================================
================================================================================
  
 -outvars: echo values of variables after computation  --------
            acell      1.0260000000E+01  1.0260000000E+01  1.0260000000E+01 Bohr
              amu      2.80860000E+01
           diemac1     1.00000000E+06
           diemac2     1.00000000E+06
           diemac3     1.00000000E+06
           diemac4     1.00000000E+00
           diemix1     1.00000000E+00
           diemix2     1.00000000E+00
           diemix3     1.00000000E+00
           diemix4     8.50000000E-01
             ecut      6.00000000E+00 Hartree
           etotal1    -7.9151214827E+00
           etotal3    -1.0724082606E+01
           etotal4    -5.2502901200E+02
            fcart1    -0.0000000000E+00 -0.0000000000E+00 -0.0000000000E+00
                      -0.0000000000E+00 -0.0000000000E+00 -0.0000000000E+00
            fcart4     0.0000000000E+00  0.0000000000E+00  0.0000000000E+00
                       0.0000000000E+00  0.0000000000E+00  0.0000000000E+00
-          fftalg         312
           getddk1          0
           getddk2          0
           getddk3          3
           getddk4          3
           getden1          0
           getden2          1
           getden3          1
           getden4          0
           getwfk1          0
           getwfk2          1
           getwfk3          2
           getwfk4          2
             iscf1          7
             iscf2         -2
             iscf3         -3
             iscf4          7
              ixc           3
           jdtset        1    2    3    4
              kpt1     2.50000000E-01  2.50000000E-01  2.50000000E-01
                       2.50000000E-01  5.00000000E-01  5.00000000E-01
              kpt2     2.50000000E-01  2.50000000E-01  2.50000000E-01
                       0.00000000E+00  0.00000000E+00  2.50000000E-01
                       0.00000000E+00  2.50000000E-01  0.00000000E+00
                       2.50000000E-01  0.00000000E+00  0.00000000E+00
                       5.00000000E-01  5.00000000E-01  2.50000000E-01
                       5.00000000E-01  2.50000000E-01  5.00000000E-01
                       2.50000000E-01  5.00000000E-01  5.00000000E-01
                       5.00000000E-01  2.50000000E-01  0.00000000E+00
                       2.50000000E-01  0.00000000E+00  5.00000000E-01
                       0.00000000E+00  5.00000000E-01  2.50000000E-01
                       0.00000000E+00  2.50000000E-01  5.00000000E-01
                       2.50000000E-01  5.00000000E-01  0.00000000E+00
                       5.00000000E-01  0.00000000E+00  2.50000000E-01
                       2.50000000E-01  2.50000000E-01 -2.50000000E-01
                       2.50000000E-01 -2.50000000E-01  2.50000000E-01
                      -2.50000000E-01  2.50000000E-01  2.50000000E-01
              kpt3     2.50000000E-01  2.50000000E-01  2.50000000E-01
                       0.00000000E+00  0.00000000E+00  2.50000000E-01
                       0.00000000E+00  2.50000000E-01  0.00000000E+00
                       2.50000000E-01  0.00000000E+00  0.00000000E+00
                       5.00000000E-01  5.00000000E-01  2.50000000E-01
                       5.00000000E-01  2.50000000E-01  5.00000000E-01
                       2.50000000E-01  5.00000000E-01  5.00000000E-01
                       5.00000000E-01  2.50000000E-01  0.00000000E+00
                       2.50000000E-01  0.00000000E+00  5.00000000E-01
                       0.00000000E+00  5.00000000E-01  2.50000000E-01
                       0.00000000E+00  2.50000000E-01  5.00000000E-01
                       2.50000000E-01  5.00000000E-01  0.00000000E+00
                       5.00000000E-01  0.00000000E+00  2.50000000E-01
                       2.50000000E-01  2.50000000E-01 -2.50000000E-01
                       2.50000000E-01 -2.50000000E-01  2.50000000E-01
                      -2.50000000E-01  2.50000000E-01  2.50000000E-01
              kpt4     2.50000000E-01  2.50000000E-01  2.50000000E-01
                       0.00000000E+00  0.00000000E+00  2.50000000E-01
                       0.00000000E+00  2.50000000E-01  0.00000000E+00
                       2.50000000E-01  0.00000000E+00  0.00000000E+00
                       5.00000000E-01  5.00000000E-01  2.50000000E-01
                       5.00000000E-01  2.50000000E-01  5.00000000E-01
                       2.50000000E-01  5.00000000E-01  5.00000000E-01
                       5.00000000E-01  2.50000000E-01  0.00000000E+00
                       2.50000000E-01  0.00000000E+00  5.00000000E-01
                       0.00000000E+00  5.00000000E-01  2.50000000E-01
                       0.00000000E+00  2.50000000E-01  5.00000000E-01
                       2.50000000E-01  5.00000000E-01  0.00000000E+00
                       5.00000000E-01  0.00000000E+00  2.50000000E-01
                       2.50000000E-01  2.50000000E-01 -2.50000000E-01
                       2.50000000E-01 -2.50000000E-01  2.50000000E-01
                      -2.50000000E-01  2.50000000E-01  2.50000000E-01
           kptopt           0
P           mkmem1          2
P           mkmem2         16
P           mkmem3         16
P           mkmem4         16
P          mkqmem1          2
P          mkqmem2         16
P          mkqmem3         16
P          mkqmem4         16
P          mk1mem1          2
P          mk1mem2         16
P          mk1mem3         16
P          mk1mem4         16
            natom           2
            nband1          4
            nband2          4
            nband3          4
            nband4          4
           nbdbuf1          0
           nbdbuf2          2
           nbdbuf3          0
           nbdbuf4          0
           ndtset           4
            ngfft          16      16      16
             nkpt1          2
             nkpt2         16
             nkpt3         16
             nkpt4         16
             nsym          48
           ntypat           1
              occ1     2.000000  2.000000  2.000000  2.000000
              occ3     2.000000  2.000000  2.000000  2.000000
              occ4     2.000000  2.000000  2.000000  2.000000
        optdriver1          0
        optdriver2          0
        optdriver3          1
        optdriver4          1
          rfatpol1          1       1
          rfatpol2          1       1
          rfatpol3          1       1
          rfatpol4          1       2
            rfdir1          0       0       0
            rfdir2          0       0       0
            rfdir3          1       0       0
            rfdir4          1       1       1
           rfelfd1          0
           rfelfd2          0
           rfelfd3          2
           rfelfd4          3
           rfphon1          0
           rfphon2          0
           rfphon3          0
           rfphon4          1
            rprim      0.0000000000E+00  5.0000000000E-01  5.0000000000E-01
                       5.0000000000E-01  0.0000000000E+00  5.0000000000E-01
                       5.0000000000E-01  5.0000000000E-01  0.0000000000E+00
          spgroup         227
           strten1     2.3126295615E-04  2.3126295615E-04  2.3126295615E-04
                       0.0000000000E+00  0.0000000000E+00  0.0000000000E+00
           strten4     0.0000000000E+00  0.0000000000E+00  0.0000000000E+00
                       0.0000000000E+00  0.0000000000E+00  0.0000000000E+00
           symrel      1  0  0   0  1  0   0  0  1       0  1 -1   1  0 -1   0  0 -1
                       0 -1  1   0 -1  0   1 -1  0      -1  0  0  -1  0  1  -1  1  0
                       0  1  0   0  0  1   1  0  0       1  0 -1   0  0 -1   0  1 -1
                       0 -1  0   1 -1  0   0 -1  1      -1  0  1  -1  1  0  -1  0  0
                       0  0  1   1  0  0   0  1  0       0  0 -1   0  1 -1   1  0 -1
                       1 -1  0   0 -1  1   0 -1  0      -1  1  0  -1  0  0  -1  0  1
                       1  0 -1   0  1 -1   0  0 -1       0  1  0   1  0  0   0  0  1
                      -1  0  1  -1  0  0  -1  1  0       0 -1  0   0 -1  1   1 -1  0
                      -1  1  0  -1  0  1  -1  0  0       1 -1  0   0 -1  0   0 -1  1
                       0  0 -1   1  0 -1   0  1 -1       0  0  1   0  1  0   1  0  0
                       0 -1  1   1 -1  0   0 -1  0      -1  0  0  -1  1  0  -1  0  1
                       1  0  0   0  0  1   0  1  0       0  1 -1   0  0 -1   1  0 -1
                      -1  0  0   0 -1  0   0  0 -1       0 -1  1  -1  0  1   0  0  1
                       0  1 -1   0  1  0  -1  1  0       1  0  0   1  0 -1   1 -1  0
                       0 -1  0   0  0 -1  -1  0  0      -1  0  1   0  0  1   0 -1  1
                       0  1  0  -1  1  0   0  1 -1       1  0 -1   1 -1  0   1  0  0
                       0  0 -1  -1  0  0   0 -1  0       0  0  1   0 -1  1  -1  0  1
                      -1  1  0   0  1 -1   0  1  0       1 -1  0   1  0  0   1  0 -1
                      -1  0  1   0 -1  1   0  0  1       0 -1  0  -1  0  0   0  0 -1
                       1  0 -1   1  0  0   1 -1  0       0  1  0   0  1 -1  -1  1  0
                       1 -1  0   1  0 -1   1  0  0      -1  1  0   0  1  0   0  1 -1
                       0  0  1  -1  0  1   0 -1  1       0  0 -1   0 -1  0  -1  0  0
                       0  1 -1  -1  1  0   0  1  0       1  0  0   1 -1  0   1  0 -1
                      -1  0  0   0  0 -1   0 -1  0       0 -1  1   0  0  1  -1  0  1
            tnons      0.0000000  0.0000000  0.0000000     0.0000000  0.0000000  0.0000000
                       0.0000000  0.0000000  0.0000000     0.0000000  0.0000000  0.0000000
                       0.0000000  0.0000000  0.0000000     0.0000000  0.0000000  0.0000000
                       0.0000000  0.0000000  0.0000000     0.0000000  0.0000000  0.0000000
                       0.0000000  0.0000000  0.0000000     0.0000000  0.0000000  0.0000000
                       0.0000000  0.0000000  0.0000000     0.0000000  0.0000000  0.0000000
                       0.0000000  0.0000000  0.0000000     0.0000000  0.0000000  0.0000000
                       0.0000000  0.0000000  0.0000000     0.0000000  0.0000000  0.0000000
                       0.0000000  0.0000000  0.0000000     0.0000000  0.0000000  0.0000000
                       0.0000000  0.0000000  0.0000000     0.0000000  0.0000000  0.0000000
                       0.0000000  0.0000000  0.0000000     0.0000000  0.0000000  0.0000000
                       0.0000000  0.0000000  0.0000000     0.0000000  0.0000000  0.0000000
                       0.2500000  0.2500000  0.2500000     0.2500000  0.2500000  0.2500000
                       0.2500000  0.2500000  0.2500000     0.2500000  0.2500000  0.2500000
                       0.2500000  0.2500000  0.2500000     0.2500000  0.2500000  0.2500000
                       0.2500000  0.2500000  0.2500000     0.2500000  0.2500000  0.2500000
                       0.2500000  0.2500000  0.2500000     0.2500000  0.2500000  0.2500000
                       0.2500000  0.2500000  0.2500000     0.2500000  0.2500000  0.2500000
                       0.2500000  0.2500000  0.2500000     0.2500000  0.2500000  0.2500000
                       0.2500000  0.2500000  0.2500000     0.2500000  0.2500000  0.2500000
                       0.2500000  0.2500000  0.2500000     0.2500000  0.2500000  0.2500000
                       0.2500000  0.2500000  0.2500000     0.2500000  0.2500000  0.2500000
                       0.2500000  0.2500000  0.2500000     0.2500000  0.2500000  0.2500000
                       0.2500000  0.2500000  0.2500000     0.2500000  0.2500000  0.2500000
           tolwfr1     1.00000000E-28
           tolwfr2     1.00000000E-28
           tolwfr3     1.00000000E-28
           tolwfr4     1.00000000E-12
            typat      1  1
              wtk1       0.25000    0.75000
              wtk2       1.00000    1.00000    1.00000    1.00000    1.00000    1.00000
                         1.00000    1.00000    1.00000    1.00000    1.00000    1.00000
                         1.00000    1.00000    1.00000    1.00000
              wtk3       0.06250    0.06250    0.06250    0.06250    0.06250    0.06250
                         0.06250    0.06250    0.06250    0.06250    0.06250    0.06250
                         0.06250    0.06250    0.06250    0.06250
              wtk4       0.06250    0.06250    0.06250    0.06250    0.06250    0.06250
                         0.06250    0.06250    0.06250    0.06250    0.06250    0.06250
                         0.06250    0.06250    0.06250    0.06250
           xangst      0.0000000000E+00  0.0000000000E+00  0.0000000000E+00
                       1.3573395400E+00  1.3573395400E+00  1.3573395400E+00
            xcart      0.0000000000E+00  0.0000000000E+00  0.0000000000E+00
                       2.5650000000E+00  2.5650000000E+00  2.5650000000E+00
             xred      0.0000000000E+00  0.0000000000E+00  0.0000000000E+00
                       2.5000000000E-01  2.5000000000E-01  2.5000000000E-01
            znucl       14.00000

================================================================================


- Timing analysis has been suppressed with timopt=0



================================================================================

 Suggested references for the acknowledgment of ABINIT usage.

 The users of ABINIT have little formal obligations with respect to the ABINIT group
 (those specified in the GNU General Public License, http://www.gnu.org/copyleft/gpl.txt).
 However, it is common practice in the scientific literature,
 to acknowledge the efforts of people that have made the research possible.
 In this spirit, please find below suggested citations of work written by ABINIT developers,
 corresponding to implementations inside of ABINIT that you have used in the present run.
 Note also that it will be of great value to readers of publications presenting these results,
 to read papers enabling them to understand the theoretical formalism and details
 of the ABINIT implementation.
 For information on why they are suggested, see also https://docs.abinit.org/theory/acknowledgments.
-
- [1] Recent developments in the ABINIT software package.
- Computer Phys. Comm. 205, 106 (2016).
- X.Gonze, F.Jollet, F.Abreu Araujo, D.Adams, B.Amadon, T.Applencourt,
- C.Audouze, J.-M.Beuken, J.Bieder, A.Bokhanchuk, E.Bousquet, F.Bruneval
- D.Caliste, M.Cote, F.Dahm, F.Da Pieve, M.Delaveau, M.Di Gennaro,
- B.Dorado, C.Espejo, G.Geneste, L.Genovese, A.Gerossier, M.Giantomassi,
- Y.Gillet, D.R.Hamann, L.He, G.Jomard, J.Laflamme Janssen, S.Le Roux,
- A.Levitt, A.Lherbier, F.Liu, I.Lukacevic, A.Martin, C.Martins,
- M.J.T.Oliveira, S.Ponce, Y.Pouillon, T.Rangel, G.-M.Rignanese,
- A.H.Romero, B.Rousseau, O.Rubel, A.A.Shukri, M.Stankovski, M.Torrent,
- M.J.Van Setten, B.Van Troeye, M.J.Verstraete, D.Waroquier, J.Wiktor,
- B.Xu, A.Zhou, J.W.Zwanziger.
- Comment: the fourth generic paper describing the ABINIT project.
- Note that a version of this paper, that is not formatted for Computer Phys. Comm. 
- is available at https://www.abinit.org/about/ABINIT16.pdf .
- The licence allows the authors to put it on the Web.
- DOI and bibtex: see https://docs.abinit.org/theory/bibliography/#gonze2016
-
- [2] First-principles responses of solids to atomic displacements and homogeneous electric fields:,
- implementation of a conjugate-gradient algorithm. X. Gonze, Phys. Rev. B55, 10337 (1997).
- Comment: Non-vanishing rfphon and/or rfelfd, in the norm-conserving case.
- DOI and bibtex: see https://docs.abinit.org/theory/bibliography/#gonze1997
-
- [3] Dynamical matrices, Born effective charges, dielectric permittivity tensors, and ,
- interatomic force constants from density-functional perturbation theory,
- X. Gonze and C. Lee, Phys. Rev. B55, 10355 (1997).
- Comment: Non-vanishing rfphon and/or rfelfd, in the norm-conserving case.
- DOI and bibtex: see https://docs.abinit.org/theory/bibliography/#gonze1997a
-
- [4] ABINIT: First-principles approach of materials and nanosystem properties.
- Computer Phys. Comm. 180, 2582-2615 (2009).
- X. Gonze, B. Amadon, P.-M. Anglade, J.-M. Beuken, F. Bottin, P. Boulanger, F. Bruneval,
- D. Caliste, R. Caracas, M. Cote, T. Deutsch, L. Genovese, Ph. Ghosez, M. Giantomassi
- S. Goedecker, D.R. Hamann, P. Hermet, F. Jollet, G. Jomard, S. Leroux, M. Mancini, S. Mazevet,
- M.J.T. Oliveira, G. Onida, Y. Pouillon, T. Rangel, G.-M. Rignanese, D. Sangalli, R. Shaltaf,
- M. Torrent, M.J. Verstraete, G. Zerah, J.W. Zwanziger
- Comment: the third generic paper describing the ABINIT project.
- Note that a version of this paper, that is not formatted for Computer Phys. Comm. 
- is available at https://www.abinit.org/about/ABINIT_CPC_v10.pdf .
- The licence allows the authors to put it on the Web.
- DOI and bibtex: see https://docs.abinit.org/theory/bibliography/#gonze2009
-
- [5] A brief introduction to the ABINIT software package.
- Z. Kristallogr. 220, 558-562 (2005).
- X. Gonze, G.-M. Rignanese, M. Verstraete, J.-M. Beuken, Y. Pouillon, R. Caracas, F. Jollet,
- M. Torrent, G. Zerah, M. Mikami, Ph. Ghosez, M. Veithen, J.-Y. Raty, V. Olevano, F. Bruneval,
- L. Reining, R. Godby, G. Onida, D.R. Hamann, and D.C. Allan.
- Comment: the second generic paper describing the ABINIT project. Note that this paper
- should be cited especially if you are using the GW part of ABINIT, as several authors
- of this part are not in the list of authors of the first or third paper.
- The .pdf of the latter paper is available at https://www.abinit.org/about/zfk_0505-06_558-562.pdf.
- Note that it should not redistributed (Copyright by Oldenburg Wissenshaftverlag,
- the licence allows the authors to put it on the Web).
- DOI and bibtex: see https://docs.abinit.org/theory/bibliography/#gonze2005
-
- Proc.   0 individual time (sec): cpu=          2.8  wall=          3.1

================================================================================

 Calculation completed.
.Delivered  27 WARNINGs and  12 COMMENTs to log file.
+Overall time at end (sec) : cpu=          2.8  wall=          3.1
