
.Version 9.0.0 of ABINIT 
.(MPI version, prepared for a x86_64_linux_gnu9.2 computer) 

.Copyright (C) 1998-2020 ABINIT group . 
 ABINIT comes with ABSOLUTELY NO WARRANTY.
 It is free software, and you are welcome to redistribute it
 under certain conditions (GNU General Public License,
 see ~abinit/COPYING or http://www.gnu.org/copyleft/gpl.txt).

 ABINIT is a project of the Universite Catholique de Louvain,
 Corning Inc. and other collaborators, see ~abinit/doc/developers/contributors.txt .
 Please read https://docs.abinit.org/theory/acknowledgments for suggested
 acknowledgments of the ABINIT effort.
 For more information, see https://www.abinit.org .

.Starting date : Fri 14 Feb 2020.
- ( at 18h22 )
  
- input  file    -> /home/gmatteo/git_repos/abinit/_abiref_gnu9.2_openmpi/tests/Test_suite/v2_t09/t09.in
- output file    -> t09.out
- root for input  files -> t09i
- root for output files -> t09o


 DATASET    1 : space group P1 (#  1); Bravais aP (primitive triclinic)
================================================================================
 Values of the parameters that define the memory need for DATASET  1.
     intxc =       0    ionmov =       0      iscf =       7    lmnmax =       1
     lnmax =       1     mgfft =      16  mpssoang =       1    mqgrid =    3001
     natom =       2  nloc_mem =       1    nspden =       1   nspinor =       1
    nsppol =       1      nsym =       1    n1xccc =       0    ntypat =       1
    occopt =       1   xclevel =       1
-    mband =           4        mffmem =           1         mkmem =           4
       mpw =          69          nfft =        4096          nkpt =           4
================================================================================
P This job should need less than                       1.429 Mbytes of memory.
  Rough estimation (10% accuracy) of disk space for files :
_ WF disk file :      0.019 Mbytes ; DEN or POT disk file :      0.033 Mbytes.
================================================================================


 DATASET    2 : space group P1 (#  1); Bravais aP (primitive triclinic)
================================================================================
 Values of the parameters that define the memory need for DATASET  2.
     intxc =       0    ionmov =       0      iscf =      -2    lmnmax =       1
     lnmax =       1     mgfft =      16  mpssoang =       1    mqgrid =    3001
     natom =       2  nloc_mem =       1    nspden =       1   nspinor =       1
    nsppol =       1      nsym =       1    n1xccc =       0    ntypat =       1
    occopt =       1   xclevel =       1
-    mband =           4        mffmem =           1         mkmem =           4
       mpw =          69          nfft =        4096          nkpt =           4
================================================================================
P This job should need less than                       0.929 Mbytes of memory.
  Rough estimation (10% accuracy) of disk space for files :
_ WF disk file :      0.019 Mbytes ; DEN or POT disk file :      0.033 Mbytes.
================================================================================


 DATASET    3 : space group P1 (#  1); Bravais aP (primitive triclinic)
================================================================================
 Values of the parameters that define the memory need for DATASET  3 (RF).
     intxc =       0      iscf =       7    lmnmax =       1     lnmax =       1
     mgfft =      16  mpssoang =       1    mqgrid =    3001     natom =       2
  nloc_mem =       1    nspden =       1   nspinor =       1    nsppol =       1
      nsym =       1    n1xccc =       0    ntypat =       1    occopt =       1
   xclevel =       1
-    mband =           4        mffmem =           1         mkmem =           4
-   mkqmem =           4        mk1mem =           4           mpw =          69
      nfft =        4096          nkpt =           4
================================================================================
P This job should need less than                       1.493 Mbytes of memory.
P Max. in main chain + fourwf.f
P           30 blocks of mpw  integer numbers, for      0.008 Mbytes.
P          150 blocks of mpw  real(dp)  numbers, for      0.079 Mbytes.
P           32 blocks of nfft real(dp)  numbers, for      1.000 Mbytes.
P              Additional     real(dp)  numbers, for      0.169 Mbytes.
P              With residue estimated to be             0.237 Mbytes.
P
P Comparison of the memory needs of different chains
P Main chain + fourwf.f                 1.493 Mbytes.
P Main chain + nonlop.f + opernl.f      1.429 Mbytes.
  Rough estimation (10% accuracy) of disk space for files :
_ WF disk file :      0.019 Mbytes ; DEN or POT disk file :      0.033 Mbytes.
================================================================================


 DATASET    4 : space group P1 (#  1); Bravais aP (primitive triclinic)
================================================================================
 Values of the parameters that define the memory need for DATASET  4.
     intxc =       0    ionmov =       0      iscf =      -2    lmnmax =       1
     lnmax =       1     mgfft =      16  mpssoang =       1    mqgrid =    3001
     natom =       2  nloc_mem =       1    nspden =       1   nspinor =       1
    nsppol =       1      nsym =       1    n1xccc =       0    ntypat =       1
    occopt =       1   xclevel =       1
-    mband =           4        mffmem =           1         mkmem =           4
       mpw =          69          nfft =        4096          nkpt =           4
================================================================================
P This job should need less than                       0.929 Mbytes of memory.
  Rough estimation (10% accuracy) of disk space for files :
_ WF disk file :      0.019 Mbytes ; DEN or POT disk file :      0.033 Mbytes.
================================================================================


 DATASET    5 : space group P1 (#  1); Bravais aP (primitive triclinic)
================================================================================
 Values of the parameters that define the memory need for DATASET  5 (RF).
     intxc =       0      iscf =       7    lmnmax =       1     lnmax =       1
     mgfft =      16  mpssoang =       1    mqgrid =    3001     natom =       2
  nloc_mem =       1    nspden =       1   nspinor =       1    nsppol =       1
      nsym =       1    n1xccc =       0    ntypat =       1    occopt =       1
   xclevel =       1
-    mband =           4        mffmem =           1         mkmem =           4
-   mkqmem =           4        mk1mem =           4           mpw =          69
      nfft =        4096          nkpt =           4
================================================================================
P This job should need less than                       1.493 Mbytes of memory.
P Max. in main chain + fourwf.f
P           30 blocks of mpw  integer numbers, for      0.008 Mbytes.
P          150 blocks of mpw  real(dp)  numbers, for      0.079 Mbytes.
P           32 blocks of nfft real(dp)  numbers, for      1.000 Mbytes.
P              Additional     real(dp)  numbers, for      0.169 Mbytes.
P              With residue estimated to be             0.237 Mbytes.
P
P Comparison of the memory needs of different chains
P Main chain + fourwf.f                 1.493 Mbytes.
P Main chain + nonlop.f + opernl.f      1.429 Mbytes.
  Rough estimation (10% accuracy) of disk space for files :
_ WF disk file :      0.019 Mbytes ; DEN or POT disk file :      0.033 Mbytes.
================================================================================

--------------------------------------------------------------------------------
------------- Echo of variables that govern the present computation ------------
--------------------------------------------------------------------------------
-
- outvars: echo of selected default values                                      
-   iomode0 =  0 , fftalg0 =312 , wfoptalg0 =  0
-
- outvars: echo of global parameters not present in the input file              
-  max_nthreads =    0
-
 -outvars: echo values of preprocessed input variables --------
            acell      1.0000000000E+01  1.0000000000E+01  1.0000000000E+01 Bohr
              amu      1.00000000E+00
           diemac1     1.50000000E+00
           diemac2     1.50000000E+00
           diemac3     1.00000000E+00
           diemac4     1.50000000E+00
           diemac5     1.50000000E+00
           diemix1     1.00000000E+00
           diemix2     1.00000000E+00
           diemix3     7.00000000E-01
           diemix4     1.00000000E+00
           diemix5     1.50000000E-01
             ecut      1.20000000E+00 Hartree
-          fftalg         312
           getden1          0
           getden2          1
           getden3          0
           getden4          1
           getden5          0
           getwfk1          0
           getwfk2          1
           getwfk3          1
           getwfk4          1
           getwfk5          1
           getwfq1          0
           getwfq2          0
           getwfq3          2
           getwfq4          0
           getwfq5          4
             iscf1          7
             iscf2         -2
             iscf3          7
             iscf4         -2
             iscf5          7
              ixc           3
           jdtset        1    2    3    4    5
              kpt      0.00000000E+00  0.00000000E+00 -3.75000000E-01
                       0.00000000E+00  0.00000000E+00 -1.25000000E-01
                       0.00000000E+00  0.00000000E+00  1.25000000E-01
                       0.00000000E+00  0.00000000E+00  3.75000000E-01
           kptopt           0
P           mkmem           4
P          mkqmem           4
P          mk1mem           4
            natom           2
            nband           4
           nbdbuf1          0
           nbdbuf2          2
           nbdbuf3          0
           nbdbuf4          2
           nbdbuf5          0
           ndtset           5
            ngfft          16      16      16
             nkpt           4
             nqpt1          0
             nqpt2          1
             nqpt3          1
             nqpt4          1
             nqpt5          1
            nstep1         30
            nstep2         30
            nstep3         30
            nstep4         30
            nstep5         60
             nsym           1
           ntypat           1
              occ      2.000000  2.000000  2.000000  2.000000
        optdriver1          0
        optdriver2          0
        optdriver3          1
        optdriver4          0
        optdriver5          1
           prtvol1          0
           prtvol2          0
           prtvol3         10
           prtvol4          0
           prtvol5         10
              qpt1     0.00000000E+00  0.00000000E+00  0.00000000E+00
              qpt2     0.00000000E+00  0.00000000E+00  5.00000000E-01
              qpt3     0.00000000E+00  0.00000000E+00  5.00000000E-01
              qpt4     0.00000000E+00  0.00000000E+00  2.10000000E-01
              qpt5     0.00000000E+00  0.00000000E+00  2.10000000E-01
            rfdir1          0       0       0
            rfdir2          0       0       0
            rfdir3          0       0       1
            rfdir4          0       0       0
            rfdir5          0       0       1
           rfphon1          0
           rfphon2          0
           rfphon3          1
           rfphon4          0
           rfphon5          1
          spgroup           1
           tolwfr1     1.00000000E-22
           tolwfr2     1.00000000E-22
           tolwfr3     1.00000000E-15
           tolwfr4     1.00000000E-22
           tolwfr5     1.00000000E-15
            typat      1  1
              wtk1       0.25000    0.25000    0.25000    0.25000
              wtk2       1.00000    1.00000    1.00000    1.00000
              wtk3       0.25000    0.25000    0.25000    0.25000
              wtk4       1.00000    1.00000    1.00000    1.00000
              wtk5       0.25000    0.25000    0.25000    0.25000
           xangst      0.0000000000E+00  0.0000000000E+00 -7.9376581289E-01
                       0.0000000000E+00  0.0000000000E+00  7.9376581289E-01
            xcart      0.0000000000E+00  0.0000000000E+00 -1.5000000000E+00
                       0.0000000000E+00  0.0000000000E+00  1.5000000000E+00
             xred      0.0000000000E+00  0.0000000000E+00 -1.5000000000E-01
                       0.0000000000E+00  0.0000000000E+00  1.5000000000E-01
            znucl       32.00000

================================================================================

 chkinp: Checking input parameters for consistency, jdtset=   1.

 chkinp: Checking input parameters for consistency, jdtset=   2.

 chkinp: Checking input parameters for consistency, jdtset=   3.

 chkinp: Checking input parameters for consistency, jdtset=   4.

 chkinp: Checking input parameters for consistency, jdtset=   5.

================================================================================
== DATASET  1 ==================================================================
-   mpi_nproc: 1, omp_nthreads: -1 (-1 if OMP is not activated)

 Exchange-correlation functional for the present dataset will be:
  LDA: old Teter (4/91) fit to Ceperley-Alder data - ixc=3

 Real(R)+Recip(G) space primitive vectors, cartesian coordinates (Bohr,Bohr^-1):
 R(1)= 10.0000000  0.0000000  0.0000000  G(1)=  0.1000000  0.0000000  0.0000000
 R(2)=  0.0000000 10.0000000  0.0000000  G(2)=  0.0000000  0.1000000  0.0000000
 R(3)=  0.0000000  0.0000000 10.0000000  G(3)=  0.0000000  0.0000000  0.1000000
 Unit cell volume ucvol=  1.0000000E+03 bohr^3
 Angles (23,13,12)=  9.00000000E+01  9.00000000E+01  9.00000000E+01 degrees

 getcut: wavevector=  0.0000  0.0000  0.0000  ngfft=  16  16  16
         ecut(hartree)=      1.200   => boxcut(ratio)=   3.24462

 getcut : COMMENT -
  Note that boxcut > 2.2 ; recall that boxcut=Gcut(box)/Gcut(sphere) = 2
  is sufficient for exact treatment of convolution.
  Such a large boxcut is a waste : you could raise ecut
  e.g. ecut=    3.158273 Hartrees makes boxcut=2


--- Pseudopotential description ------------------------------------------------
- pspini: atom type   1  psp file is /home/gmatteo/git_repos/abinit/tests/Psps_for_tests/32ge.SJ_mod
- pspatm: opening atomic psp file    /home/gmatteo/git_repos/abinit/tests/Psps_for_tests/32ge.SJ_mod
-   Starkloff-Joannopoulos local psp ( !!! OLD : only for tests)
- 32.00000   4.00000    900101                znucl, zion, pspdat
    5    3    0    0       700   0.00000      pspcod,pspxc,lmax,lloc,mmax,r2well
    1.000000E-06    2.603367E-02              r1 and al (Hamman grid)
    0   0.000   0.000    0   1.0500000        l,e99.0,e99.9,nproj,rcpsp
   0.00000000   0.00000000   0.00000000   0.00000000     rms, ekb1, ekb2, epsatm
    0.00000000000000    0.00000000000000    0.00000000000000   rchrg,fchrg,qchrg
 Note: local psp for atom with Z= 32.0
  pspatm : epsatm=   27.96404307
         --- l  ekb(1:nproj) -->
 pspatm: atomic psp has been read  and splines computed

   4.47424689E+02                                ecore*ucvol(ha*bohr**3)
--------------------------------------------------------------------------------

_setup2: Arith. and geom. avg. npw (full set) are      67.000      66.970

================================================================================

     iter   Etot(hartree)      deltaE(h)  residm     vres2
 ETOT  1  -6.8259214901005    -6.826E+00 1.075E-03 7.395E+00
 ETOT  2  -6.8433140271191    -1.739E-02 4.048E-07 1.645E-01
 ETOT  3  -6.8435070307586    -1.930E-04 5.524E-07 3.912E-03
 ETOT  4  -6.8435098100293    -2.779E-06 1.099E-07 8.532E-04
 ETOT  5  -6.8435115520532    -1.742E-06 4.151E-08 1.577E-04
 ETOT  6  -6.8435121573873    -6.053E-07 1.110E-08 2.014E-05
 ETOT  7  -6.8435122467056    -8.932E-08 8.044E-10 1.552E-08
 ETOT  8  -6.8435122467806    -7.505E-11 3.718E-12 2.162E-09
 ETOT  9  -6.8435122467884    -7.812E-12 3.297E-13 4.422E-11
 ETOT 10  -6.8435122467885    -1.128E-13 1.924E-15 1.311E-12
 ETOT 11  -6.8435122467885    -3.553E-15 5.179E-17 5.266E-14
 ETOT 12  -6.8435122467886    -7.994E-15 2.755E-18 8.135E-16
 ETOT 13  -6.8435122467885     3.819E-14 7.952E-20 6.573E-17
 ETOT 14  -6.8435122467886    -5.862E-14 5.281E-21 2.169E-18
 ETOT 15  -6.8435122467885     2.842E-14 3.483E-22 2.923E-19
 ETOT 16  -6.8435122467885    -3.553E-15 9.705E-23 1.117E-19

 At SCF step   16   max residual=  9.71E-23 < tolwfr=  1.00E-22 =>converged.

 Cartesian components of stress tensor (hartree/bohr^3)
  sigma(1 1)=  3.15153607E-04  sigma(3 2)=  0.00000000E+00
  sigma(2 2)=  3.15153607E-04  sigma(3 1)= -3.78608946E-15
  sigma(3 3)= -1.88255499E-03  sigma(2 1)=  0.00000000E+00


--- !ResultsGS
iteration_state: {dtset: 1, }
comment   : Summary of ground state results
rprimd    :
- [ 10.0000000,   0.0000000,   0.0000000, ]
- [  0.0000000,  10.0000000,   0.0000000, ]
- [  0.0000000,   0.0000000,  10.0000000, ]
lattice_lengths: [  10.00000,   10.00000,   10.00000, ]
lattice_angles: [ 90.000,  90.000,  90.000, ]
lattice_volume:   1.0000000E+03
convergence_: {deltae: -3.55E-15, res2:  1.12E-19, residm:  9.71E-23, diffor: undef, }
etotal    :  -6.84351225E+00
entropy   :   0.00000000E+00
fermie    :  -1.67753976E-01
cartesian_stress_tensor:
- [  3.15153607E-04,   0.00000000E+00,  -3.78608946E-15, ]
- [  0.00000000E+00,   3.15153607E-04,   0.00000000E+00, ]
- [ -3.78608946E-15,   0.00000000E+00,  -1.88255499E-03, ]
pressure_GPa:   1.2281E+01
cartesian_forces:
- [  2.45813962E-13,   7.81256204E-14,  -7.37515384E-01, ]
- [ -2.45813962E-13,  -7.81256204E-14,   7.37515384E-01, ]
force_length_stats: {min:   7.37515384E-01, max:   7.37515384E-01, mean:   7.37515384E-01, }
...

 Integrated electronic density in atomic spheres:
 ------------------------------------------------
 Atom  Sphere_radius  Integrated_density
    1        2.00000          1.53462217
    2        2.00000          1.53462217
================================================================================

 ----iterations are completed or convergence reached----

 Mean square residual over all n,k,spin=   36.008E-24; max=  97.052E-24
 reduced coordinates (array xred) for    2 atoms
       0.000000000000      0.000000000000     -0.150000000000
       0.000000000000      0.000000000000      0.150000000000
 rms dE/dt=  4.2580E+00; max dE/dt=  7.3752E+00; dE/dt below (all hartree)
    1       0.000000000052     -0.000000000039      7.375153838155
    2       0.000000000057     -0.000000000038     -7.375153838051

 cartesian coordinates (angstrom) at end:
    1      0.00000000000000     0.00000000000000    -0.79376581288500
    2      0.00000000000000     0.00000000000000     0.79376581288500

 cartesian forces (hartree/bohr) at end:
    1      0.00000000000025     0.00000000000008    -0.73751538381028
    2     -0.00000000000025    -0.00000000000008     0.73751538381028
 frms,max,avg= 4.2580471E-01 7.3751538E-01  -5.453E-12  3.836E-12 -5.175E-12 h/b

 cartesian forces (eV/Angstrom) at end:
    1      0.00000000001264     0.00000000000402   -37.92456267152999
    2     -0.00000000001264    -0.00000000000402    37.92456267152999
 frms,max,avg= 2.1895756E+01 3.7924563E+01  -2.804E-10  1.972E-10 -2.661E-10 e/A
 length scales= 10.000000000000 10.000000000000 10.000000000000 bohr
              =  5.291772085900  5.291772085900  5.291772085900 angstroms
 prteigrs : about to open file t09o_DS1_EIG
 Fermi (or HOMO) energy (hartree) =  -0.16775   Average Vxc (hartree)=  -0.17366
 Eigenvalues (hartree) for nkpt=   4  k points:
 kpt#   1, nband=  4, wtk=  0.25000, kpt=  0.0000  0.0000 -0.3750 (reduced coord)
  -0.47259   -0.26076   -0.16775   -0.16775
 prteigrs : prtvol=0 or 1, do not print more k-points.


--- !EnergyTerms
iteration_state     : {dtset: 1, }
comment             : Components of total free energy in Hartree
kinetic             :  2.48083564750232E+00
hartree             :  2.42462179554950E+00
xc                  : -2.12952418745415E+00
Ewald energy        : -3.40312010772530E+00
psp_core            :  4.47424689112462E-01
local_psp           : -6.66375008377337E+00
non_local_psp       :  0.00000000000000E+00
total_energy        : -6.84351224678855E+00
total_energy_eV     : -1.86221438697974E+02
band_energy         : -2.10890390663923E+00
...


 Cartesian components of stress tensor (hartree/bohr^3)
  sigma(1 1)=  3.15153607E-04  sigma(3 2)=  0.00000000E+00
  sigma(2 2)=  3.15153607E-04  sigma(3 1)= -3.78608946E-15
  sigma(3 3)= -1.88255499E-03  sigma(2 1)=  0.00000000E+00

-Cartesian components of stress tensor (GPa)         [Pressure=  1.2281E+01 GPa]
- sigma(1 1)=  9.27213769E+00  sigma(3 2)=  0.00000000E+00
- sigma(2 2)=  9.27213769E+00  sigma(3 1)= -1.11390579E-10
- sigma(3 3)= -5.53866706E+01  sigma(2 1)=  0.00000000E+00

================================================================================
== DATASET  2 ==================================================================
-   mpi_nproc: 1, omp_nthreads: -1 (-1 if OMP is not activated)

 mkfilename : getwfk/=0, take file _WFK from output of DATASET   1.

 mkfilename : getden/=0, take file _DEN from output of DATASET   1.

 Exchange-correlation functional for the present dataset will be:
  LDA: old Teter (4/91) fit to Ceperley-Alder data - ixc=3

 Real(R)+Recip(G) space primitive vectors, cartesian coordinates (Bohr,Bohr^-1):
 R(1)= 10.0000000  0.0000000  0.0000000  G(1)=  0.1000000  0.0000000  0.0000000
 R(2)=  0.0000000 10.0000000  0.0000000  G(2)=  0.0000000  0.1000000  0.0000000
 R(3)=  0.0000000  0.0000000 10.0000000  G(3)=  0.0000000  0.0000000  0.1000000
 Unit cell volume ucvol=  1.0000000E+03 bohr^3
 Angles (23,13,12)=  9.00000000E+01  9.00000000E+01  9.00000000E+01 degrees

 getcut: wavevector=  0.0000  0.0000  0.0000  ngfft=  16  16  16
         ecut(hartree)=      1.200   => boxcut(ratio)=   3.24462

 getcut : COMMENT -
  Note that boxcut > 2.2 ; recall that boxcut=Gcut(box)/Gcut(sphere) = 2
  is sufficient for exact treatment of convolution.
  Such a large boxcut is a waste : you could raise ecut
  e.g. ecut=    3.158273 Hartrees makes boxcut=2

--------------------------------------------------------------------------------

-inwffil : will read wavefunctions from disk file t09o_DS1_WFK

================================================================================
 prteigrs : about to open file t09o_DS2_EIG
 Non-SCF case, kpt    1 (  0.00000  0.00000  0.12500), residuals and eigenvalues=
  5.68E-23  8.16E-23  3.44E-23  5.04E-23
 -4.7852E-01 -2.2152E-01 -1.7000E-01 -1.7000E-01
 Non-SCF case, kpt    2 (  0.00000  0.00000  0.37500), residuals and eigenvalues=
  5.06E-23  7.49E-23  2.75E-23  2.25E-23
 -4.7259E-01 -2.6076E-01 -1.6775E-01 -1.6775E-01
 Non-SCF case, kpt    3 (  0.00000  0.00000  0.62500), residuals and eigenvalues=
  5.06E-23  7.49E-23  2.75E-23  2.25E-23
 -4.7259E-01 -2.6076E-01 -1.6775E-01 -1.6775E-01
 Non-SCF case, kpt    4 (  0.00000  0.00000  0.87500), residuals and eigenvalues=
  5.68E-23  8.16E-23  6.13E-23  4.11E-23
 -4.7852E-01 -2.2152E-01 -1.7000E-01 -1.7000E-01


--- !ResultsGS
iteration_state: {dtset: 2, }
comment   : Summary of ground state results
rprimd    :
- [ 10.0000000,   0.0000000,   0.0000000, ]
- [  0.0000000,  10.0000000,   0.0000000, ]
- [  0.0000000,   0.0000000,  10.0000000, ]
lattice_lengths: [  10.00000,   10.00000,   10.00000, ]
lattice_angles: [ 90.000,  90.000,  90.000, ]
lattice_volume:   1.0000000E+03
convergence_: {deltae:  0.00E+00, res2:  0.00E+00, residm:  8.16E-23, diffor:  0.00E+00, }
etotal    :  -6.84351225E+00
entropy   :   0.00000000E+00
fermie    :  -1.67753976E-01
cartesian_stress_tensor: null
pressure_GPa: null
cartesian_forces: null
force_length_stats: {min: null, max: null, mean: null, }
...

 Integrated electronic density in atomic spheres:
 ------------------------------------------------
 Atom  Sphere_radius  Integrated_density
    1        2.00000          1.53462217
    2        2.00000          1.53462217
================================================================================

 ----iterations are completed or convergence reached----

 Mean square residual over all n,k,spin=   65.982E-24; max=  81.603E-24
 reduced coordinates (array xred) for    2 atoms
       0.000000000000      0.000000000000     -0.150000000000
       0.000000000000      0.000000000000      0.150000000000

 cartesian coordinates (angstrom) at end:
    1      0.00000000000000     0.00000000000000    -0.79376581288500
    2      0.00000000000000     0.00000000000000     0.79376581288500
 length scales= 10.000000000000 10.000000000000 10.000000000000 bohr
              =  5.291772085900  5.291772085900  5.291772085900 angstroms
 prteigrs : about to open file t09o_DS2_EIG
 Eigenvalues (hartree) for nkpt=   4  k points:
 kpt#   1, nband=  4, wtk=  1.00000, kpt=  0.0000  0.0000  0.1250 (reduced coord)
  -0.47852   -0.22152   -0.17000   -0.17000
 kpt#   2, nband=  4, wtk=  1.00000, kpt=  0.0000  0.0000  0.3750 (reduced coord)
  -0.47259   -0.26076   -0.16775   -0.16775
 kpt#   3, nband=  4, wtk=  1.00000, kpt=  0.0000  0.0000  0.6250 (reduced coord)
  -0.47259   -0.26076   -0.16775   -0.16775
 kpt#   4, nband=  4, wtk=  1.00000, kpt=  0.0000  0.0000  0.8750 (reduced coord)
  -0.47852   -0.22152   -0.17000   -0.17000

================================================================================
== DATASET  3 ==================================================================
-   mpi_nproc: 1, omp_nthreads: -1 (-1 if OMP is not activated)

 mkfilename : getwfk/=0, take file _WFK from output of DATASET   1.

 mkfilename : getwfq/=0, take file _WFQ from output of DATASET   2.

 Exchange-correlation functional for the present dataset will be:
  LDA: old Teter (4/91) fit to Ceperley-Alder data - ixc=3

 Real(R)+Recip(G) space primitive vectors, cartesian coordinates (Bohr,Bohr^-1):
 R(1)= 10.0000000  0.0000000  0.0000000  G(1)=  0.1000000  0.0000000  0.0000000
 R(2)=  0.0000000 10.0000000  0.0000000  G(2)=  0.0000000  0.1000000  0.0000000
 R(3)=  0.0000000  0.0000000 10.0000000  G(3)=  0.0000000  0.0000000  0.1000000
 Unit cell volume ucvol=  1.0000000E+03 bohr^3
 Angles (23,13,12)=  9.00000000E+01  9.00000000E+01  9.00000000E+01 degrees
 setup1 : take into account q-point for computing boxcut.

 getcut: wavevector=  0.0000  0.0000  0.5000  ngfft=  16  16  16
         ecut(hartree)=      1.200   => boxcut(ratio)=   3.04183

 getcut : COMMENT -
  Note that boxcut > 2.2 ; recall that boxcut=Gcut(box)/Gcut(sphere) = 2
  is sufficient for exact treatment of convolution.
  Such a large boxcut is a waste : you could raise ecut
  e.g. ecut=    2.775826 Hartrees makes boxcut=2

--------------------------------------------------------------------------------

-inwffil : will read wavefunctions from disk file t09o_DS1_WFK
P newkpt: treating      4 bands with npw=      65 for ikpt=   1 by node    0
P newkpt: treating      4 bands with npw=      69 for ikpt=   2 by node    0
P newkpt: treating      4 bands with npw=      69 for ikpt=   3 by node    0
P newkpt: treating      4 bands with npw=      65 for ikpt=   4 by node    0

 ==>  initialize data related to q vector <== 

 The list of irreducible perturbations for this q vector is:
    1)    idir= 3    ipert=   1

================================================================================

--------------------------------------------------------------------------------
 Perturbation wavevector (in red.coord.)   0.000000  0.000000  0.500000
 Perturbation : displacement of atom   1   along direction   3
 The set of symmetries contains only one element for this perturbation.
 symkpt : not enough symmetry to change the number of k points.

--------------------------------------------------------------------------------

-inwffil : will read wavefunctions from disk file t09o_DS1_WFK
P newkpt: treating      4 bands with npw=      65 for ikpt=   1 by node    0
P newkpt: treating      4 bands with npw=      69 for ikpt=   2 by node    0
P newkpt: treating      4 bands with npw=      69 for ikpt=   3 by node    0
P newkpt: treating      4 bands with npw=      65 for ikpt=   4 by node    0
--------------------------------------------------------------------------------

-inwffil : will read wavefunctions from disk file t09o_DS2_WFQ
- newkpt: read input wf with ikpt,npw=   1      69, make ikpt,npw=   1      69
- newkpt: read input wf with ikpt,npw=   2      65, make ikpt,npw=   2      65
- newkpt: read input wf with ikpt,npw=   3      65, make ikpt,npw=   3      65
- newkpt: read input wf with ikpt,npw=   4      69, make ikpt,npw=   4      69
 Initialisation of the first-order wave-functions :
  ireadwf=   0
P newkpt: treating      4 bands with npw=      69 for ikpt=   1 by node    0
P newkpt: treating      4 bands with npw=      65 for ikpt=   2 by node    0
P newkpt: treating      4 bands with npw=      65 for ikpt=   3 by node    0
P newkpt: treating      4 bands with npw=      69 for ikpt=   4 by node    0

     iter   2DEtotal(Ha)        deltaE(Ha) residm    vres2

-ETOT  1   1210.1068557100      1.020E+03 1.942E-01 4.930E+05

 ETOT  2   12006.946978221      1.080E+04 1.375E+00 5.334E+06

 ETOT  3   122.64174651917     -1.188E+04 8.397E-01 2.721E+03

 ETOT  4   117.77177878063     -4.870E+00 2.210E-03 5.537E-01

 ETOT  5   117.77087461205     -9.042E-04 6.755E-07 5.293E-01

 ETOT  6   117.76993781320     -9.368E-04 9.112E-08 7.605E-04

 ETOT  7   117.76993570701     -2.106E-06 8.278E-10 6.991E-06

 ETOT  8   117.76993569410     -1.290E-08 9.576E-12 4.970E-07

 ETOT  9   117.76993569346     -6.402E-10 2.797E-13 2.947E-08

 ETOT 10   117.76993569342     -4.802E-11 8.614E-15 1.539E-10

 ETOT 11   117.76993569342      1.279E-13 9.727E-16 1.287E-11

 At SCF step   11   max residual=  9.73E-16 < tolwfr=  1.00E-15 =>converged.
================================================================================

 ----iterations are completed or convergence reached----

 Mean square residual over all n,k,spin=   57.432E-17; max=  97.271E-17
   0.0000  0.0000 -0.3750    1  7.70127E-16 kpt; spin; max resid(k); each band:
  7.70E-16 6.15E-16 1.96E-16 1.96E-16
   0.0000  0.0000 -0.1250    1  9.72706E-16 kpt; spin; max resid(k); each band:
  5.52E-16 3.20E-16 9.73E-16 9.73E-16
   0.0000  0.0000  0.1250    1  9.72699E-16 kpt; spin; max resid(k); each band:
  5.52E-16 3.20E-16 9.73E-16 9.73E-16
   0.0000  0.0000  0.3750    1  7.70462E-16 kpt; spin; max resid(k); each band:
  7.70E-16 6.15E-16 1.96E-16 1.96E-16

 Thirteen components of 2nd-order total energy (hartree) are
 1,2,3: 0th-order hamiltonian combined with 1st-order wavefunctions
     kin0=   4.24317834E+01 eigvalue=   1.69927722E+01  local=  -2.99067379E+01
 4,5,6: 1st-order hamiltonian combined with 1st and 0th-order wfs
 loc psp =  -1.44080173E+02  Hartree=   5.01781690E+01     xc=  -7.65589855E+00
 note that "loc psp" includes a xc core correction that could be resolved
 7,8,9: eventually, occupation + non-local contributions
    edocc=   0.00000000E+00     enl0=   0.00000000E+00   enl1=   0.00000000E+00
 1-9 gives the relaxation energy (to be shifted if some occ is /=2.0)
   erelax=  -7.20400853E+01
 10,11,12 Non-relaxation  contributions : frozen-wavefunctions and Ewald
 fr.local=   3.65672732E+01 fr.nonlo=   0.00000000E+00  Ewald=   1.53242748E+02
 13,14 Frozen wf xc core corrections (1) and (2)
 frxc 1  =   0.00000000E+00  frxc 2 =   0.00000000E+00
 Resulting in :
 2DEtotal=    0.1177699357E+03 Ha. Also 2DEtotal=    0.320468292732E+04 eV
    (2DErelax=   -7.2040085302E+01 Ha. 2DEnonrelax=    1.8981002100E+02 Ha)
    (  non-var. 2DEtotal :    1.1776993427E+02 Ha)

================================================================================

 ---- first-order wavefunction calculations are completed ----


 ==> Compute Derivative Database <==
  
  Ewald part of the dynamical matrix
     j1       j2             matrix element
  dir pert dir pert     real part   imaginary part
  
   1    1   3    1        -0.0000000000        -0.0000000000
  
   2    1   3    1        -0.0000000000        -0.0000000000
  
   3    1   3    1       153.2427478424         0.0000000000
  
   1    2   3    1         0.0000000000         0.0000000000
  
   2    2   3    1        -0.0000000000         0.0000000000
  
   3    2   3    1      -102.8618263090         0.0000000000
  
  Frozen wf local part of the dynamical matrix
     j1       j2             matrix element
  dir pert dir pert     real part   imaginary part
  
   1    1   3    1         0.0000000001         0.0000000000
  
   2    1   3    1        -0.0000000002         0.0000000000
  
   3    1   3    1        36.5672731529         0.0000000000
  
   1    2   3    1         0.0000000000         0.0000000000
  
   2    2   3    1         0.0000000000         0.0000000000
  
   3    2   3    1         0.0000000000         0.0000000000
  
  Frozen wf non-local part of the dynamical matrix
     j1       j2             matrix element
  dir pert dir pert     real part   imaginary part
  
   1    1   3    1         0.0000000000         0.0000000000
  
   2    1   3    1         0.0000000000         0.0000000000
  
   3    1   3    1         0.0000000000         0.0000000000
  
   1    2   3    1         0.0000000000         0.0000000000
  
   2    2   3    1         0.0000000000         0.0000000000
  
   3    2   3    1         0.0000000000         0.0000000000
  
  Frozen wf xc core (1) part of the dynamical matrix
     j1       j2             matrix element
  dir pert dir pert     real part   imaginary part
  
   1    1   3    1         0.0000000000         0.0000000000
  
   2    1   3    1         0.0000000000         0.0000000000
  
   3    1   3    1         0.0000000000         0.0000000000
  
   1    2   3    1         0.0000000000         0.0000000000
  
   2    2   3    1         0.0000000000         0.0000000000
  
   3    2   3    1         0.0000000000         0.0000000000
  
  Frozen wf xc core (2) part of the dynamical matrix
     j1       j2             matrix element
  dir pert dir pert     real part   imaginary part
  
   1    1   3    1         0.0000000000         0.0000000000
  
   2    1   3    1         0.0000000000         0.0000000000
  
   3    1   3    1         0.0000000000         0.0000000000
  
   1    2   3    1         0.0000000000         0.0000000000
  
   2    2   3    1         0.0000000000         0.0000000000
  
   3    2   3    1         0.0000000000         0.0000000000
  
  Non-stationary local part of the 2-order matrix
     j1       j2             matrix element
  dir pert dir pert     real part   imaginary part
  
   1    1   3    1        -0.0000000000        -0.0000000000
  
   2    1   3    1        -0.0000000001         0.0000000000
  
   3    1   3    1       -72.0400867269        -0.0000000006
  
   1    2   3    1         0.0000000002        -0.0000000000
  
   2    2   3    1        -0.0000000002         0.0000000000
  
   3    2   3    1       -16.2318211760        -0.0000000006
  
  Non-stationary non-local part of the 2nd-order matrix
     j1       j2             matrix element
  dir pert dir pert     real part   imaginary part
  
   1    1   3    1         0.0000000000         0.0000000000
  
   2    1   3    1         0.0000000000         0.0000000000
  
   3    1   3    1         0.0000000000         0.0000000000
  
   1    2   3    1         0.0000000000         0.0000000000
  
   2    2   3    1         0.0000000000         0.0000000000
  
   3    2   3    1         0.0000000000         0.0000000000
  
  2nd-order matrix (non-cartesian coordinates, masses not included,
   asr not included )
     j1       j2             matrix element
  dir pert dir pert     real part     imaginary part
  
   1    1   3    1         0.0000000001        -0.0000000000
  
   2    1   3    1        -0.0000000003         0.0000000000
  
   3    1   1    1         0.0000000001         0.0000000000
   3    1   2    1        -0.0000000003        -0.0000000000
   3    1   3    1       117.7699342684         0.0000000000
   3    1   1    2         0.0000000002         0.0000000000
   3    1   2    2        -0.0000000002        -0.0000000000
   3    1   3    2      -119.0936474850         0.0000000006
  
   1    2   3    1         0.0000000002        -0.0000000000
  
   2    2   3    1        -0.0000000002         0.0000000000
  
   3    2   3    1      -119.0936474850        -0.0000000006
  
  
  Dynamical matrix, in cartesian coordinates,
   if specified in the inputs, asr has been imposed
     j1       j2             matrix element
  dir pert dir pert     real part    imaginary part
  
   1    1   3    1         0.0000000000        -0.0000000000
  
   2    1   3    1        -0.0000000000         0.0000000000
  
   3    1   1    1         0.0000000000         0.0000000000
   3    1   2    1        -0.0000000000        -0.0000000000
   3    1   3    1         1.1776993427         0.0000000000
   3    1   1    2         0.0000000000         0.0000000000
   3    1   2    2        -0.0000000000        -0.0000000000
   3    1   3    2        -1.1909364749         0.0000000000
  
   1    2   3    1         0.0000000000        -0.0000000000
  
   2    2   3    1        -0.0000000000         0.0000000000
  
   3    2   3    1        -1.1909364749        -0.0000000000

  Phonon wavevector (reduced coordinates) :  0.00000  0.00000  0.50000
 Phonon energies in Hartree :
   0.000000E+00  0.000000E+00  0.000000E+00  0.000000E+00  0.000000E+00
   2.541775E-02
 Phonon frequencies in cm-1    :
-  0.000000E+00  0.000000E+00  0.000000E+00  0.000000E+00  0.000000E+00
-  5.578552E+03
 chkph3 : WARNING -
  The dynamical matrix was incomplete : phonon frequencies may be wrong ...

================================================================================
== DATASET  4 ==================================================================
-   mpi_nproc: 1, omp_nthreads: -1 (-1 if OMP is not activated)

 mkfilename : getwfk/=0, take file _WFK from output of DATASET   1.

 mkfilename : getden/=0, take file _DEN from output of DATASET   1.

 Exchange-correlation functional for the present dataset will be:
  LDA: old Teter (4/91) fit to Ceperley-Alder data - ixc=3

 Real(R)+Recip(G) space primitive vectors, cartesian coordinates (Bohr,Bohr^-1):
 R(1)= 10.0000000  0.0000000  0.0000000  G(1)=  0.1000000  0.0000000  0.0000000
 R(2)=  0.0000000 10.0000000  0.0000000  G(2)=  0.0000000  0.1000000  0.0000000
 R(3)=  0.0000000  0.0000000 10.0000000  G(3)=  0.0000000  0.0000000  0.1000000
 Unit cell volume ucvol=  1.0000000E+03 bohr^3
 Angles (23,13,12)=  9.00000000E+01  9.00000000E+01  9.00000000E+01 degrees

 getcut: wavevector=  0.0000  0.0000  0.0000  ngfft=  16  16  16
         ecut(hartree)=      1.200   => boxcut(ratio)=   3.24462

 getcut : COMMENT -
  Note that boxcut > 2.2 ; recall that boxcut=Gcut(box)/Gcut(sphere) = 2
  is sufficient for exact treatment of convolution.
  Such a large boxcut is a waste : you could raise ecut
  e.g. ecut=    3.158273 Hartrees makes boxcut=2

--------------------------------------------------------------------------------

-inwffil : will read wavefunctions from disk file t09o_DS1_WFK

================================================================================
 prteigrs : about to open file t09o_DS4_EIG
 Non-SCF case, kpt    1 (  0.00000  0.00000 -0.16500), residuals and eigenvalues=
  1.87E-23  4.04E-23  8.97E-23  8.97E-23
 -4.7816E-01 -2.3034E-01 -1.6999E-01 -1.6999E-01
 Non-SCF case, kpt    2 (  0.00000  0.00000  0.08500), residuals and eigenvalues=
  3.94E-23  7.52E-23  9.78E-24  9.73E-24
 -4.7877E-01 -2.1252E-01 -1.6979E-01 -1.6979E-01
 Non-SCF case, kpt    3 (  0.00000  0.00000  0.33500), residuals and eigenvalues=
  6.25E-23  3.22E-23  5.32E-23  5.32E-23
 -4.7306E-01 -2.5648E-01 -1.6828E-01 -1.6828E-01
 Non-SCF case, kpt    4 (  0.00000  0.00000  0.58500), residuals and eigenvalues=
  4.38E-23  6.58E-23  7.72E-25  7.72E-25
 -4.7223E-01 -2.6390E-01 -1.6727E-01 -1.6727E-01


--- !ResultsGS
iteration_state: {dtset: 4, }
comment   : Summary of ground state results
rprimd    :
- [ 10.0000000,   0.0000000,   0.0000000, ]
- [  0.0000000,  10.0000000,   0.0000000, ]
- [  0.0000000,   0.0000000,  10.0000000, ]
lattice_lengths: [  10.00000,   10.00000,   10.00000, ]
lattice_angles: [ 90.000,  90.000,  90.000, ]
lattice_volume:   1.0000000E+03
convergence_: {deltae:  0.00E+00, res2:  0.00E+00, residm:  7.52E-23, diffor:  0.00E+00, }
etotal    :  -6.84351225E+00
entropy   :   0.00000000E+00
fermie    :  -1.67753976E-01
cartesian_stress_tensor: null
pressure_GPa: null
cartesian_forces: null
force_length_stats: {min: null, max: null, mean: null, }
...

 Integrated electronic density in atomic spheres:
 ------------------------------------------------
 Atom  Sphere_radius  Integrated_density
    1        2.00000          1.53462217
    2        2.00000          1.53462217
================================================================================

 ----iterations are completed or convergence reached----

 Mean square residual over all n,k,spin=   47.221E-24; max=  75.212E-24
 reduced coordinates (array xred) for    2 atoms
       0.000000000000      0.000000000000     -0.150000000000
       0.000000000000      0.000000000000      0.150000000000

 cartesian coordinates (angstrom) at end:
    1      0.00000000000000     0.00000000000000    -0.79376581288500
    2      0.00000000000000     0.00000000000000     0.79376581288500
 length scales= 10.000000000000 10.000000000000 10.000000000000 bohr
              =  5.291772085900  5.291772085900  5.291772085900 angstroms
 prteigrs : about to open file t09o_DS4_EIG
 Eigenvalues (hartree) for nkpt=   4  k points:
 kpt#   1, nband=  4, wtk=  1.00000, kpt=  0.0000  0.0000 -0.1650 (reduced coord)
  -0.47816   -0.23034   -0.16999   -0.16999
 kpt#   2, nband=  4, wtk=  1.00000, kpt=  0.0000  0.0000  0.0850 (reduced coord)
  -0.47877   -0.21252   -0.16979   -0.16979
 kpt#   3, nband=  4, wtk=  1.00000, kpt=  0.0000  0.0000  0.3350 (reduced coord)
  -0.47306   -0.25648   -0.16828   -0.16828
 kpt#   4, nband=  4, wtk=  1.00000, kpt=  0.0000  0.0000  0.5850 (reduced coord)
  -0.47223   -0.26390   -0.16727   -0.16727

================================================================================
== DATASET  5 ==================================================================
-   mpi_nproc: 1, omp_nthreads: -1 (-1 if OMP is not activated)

 mkfilename : getwfk/=0, take file _WFK from output of DATASET   1.

 mkfilename : getwfq/=0, take file _WFQ from output of DATASET   4.

 Exchange-correlation functional for the present dataset will be:
  LDA: old Teter (4/91) fit to Ceperley-Alder data - ixc=3

 Real(R)+Recip(G) space primitive vectors, cartesian coordinates (Bohr,Bohr^-1):
 R(1)= 10.0000000  0.0000000  0.0000000  G(1)=  0.1000000  0.0000000  0.0000000
 R(2)=  0.0000000 10.0000000  0.0000000  G(2)=  0.0000000  0.1000000  0.0000000
 R(3)=  0.0000000  0.0000000 10.0000000  G(3)=  0.0000000  0.0000000  0.1000000
 Unit cell volume ucvol=  1.0000000E+03 bohr^3
 Angles (23,13,12)=  9.00000000E+01  9.00000000E+01  9.00000000E+01 degrees
 setup1 : take into account q-point for computing boxcut.

 getcut: wavevector=  0.0000  0.0000  0.2100  ngfft=  16  16  16
         ecut(hartree)=      1.200   => boxcut(ratio)=   3.15945

 getcut : COMMENT -
  Note that boxcut > 2.2 ; recall that boxcut=Gcut(box)/Gcut(sphere) = 2
  is sufficient for exact treatment of convolution.
  Such a large boxcut is a waste : you could raise ecut
  e.g. ecut=    2.994640 Hartrees makes boxcut=2

--------------------------------------------------------------------------------

-inwffil : will read wavefunctions from disk file t09o_DS1_WFK
P newkpt: treating      4 bands with npw=      65 for ikpt=   1 by node    0
P newkpt: treating      4 bands with npw=      69 for ikpt=   2 by node    0
P newkpt: treating      4 bands with npw=      69 for ikpt=   3 by node    0
P newkpt: treating      4 bands with npw=      65 for ikpt=   4 by node    0

 ==>  initialize data related to q vector <== 

 The list of irreducible perturbations for this q vector is:
    1)    idir= 3    ipert=   1

================================================================================

--------------------------------------------------------------------------------
 Perturbation wavevector (in red.coord.)   0.000000  0.000000  0.210000
 Perturbation : displacement of atom   1   along direction   3
 The set of symmetries contains only one element for this perturbation.
 symkpt : not enough symmetry to change the number of k points.

--------------------------------------------------------------------------------

-inwffil : will read wavefunctions from disk file t09o_DS1_WFK
P newkpt: treating      4 bands with npw=      65 for ikpt=   1 by node    0
P newkpt: treating      4 bands with npw=      69 for ikpt=   2 by node    0
P newkpt: treating      4 bands with npw=      69 for ikpt=   3 by node    0
P newkpt: treating      4 bands with npw=      65 for ikpt=   4 by node    0
--------------------------------------------------------------------------------

-inwffil : will read wavefunctions from disk file t09o_DS4_WFQ
- newkpt: read input wf with ikpt,npw=   1      69, make ikpt,npw=   1      69
- newkpt: read input wf with ikpt,npw=   2      69, make ikpt,npw=   2      69
- newkpt: read input wf with ikpt,npw=   3      65, make ikpt,npw=   3      65
- newkpt: read input wf with ikpt,npw=   4      65, make ikpt,npw=   4      65
 Initialisation of the first-order wave-functions :
  ireadwf=   0
P newkpt: treating      4 bands with npw=      69 for ikpt=   1 by node    0
P newkpt: treating      4 bands with npw=      69 for ikpt=   2 by node    0
P newkpt: treating      4 bands with npw=      65 for ikpt=   3 by node    0
P newkpt: treating      4 bands with npw=      65 for ikpt=   4 by node    0

     iter   2DEtotal(Ha)        deltaE(Ha) residm    vres2

-ETOT  1   3277.2207905173      3.089E+03 8.708E-01 8.227E+06

 ETOT  2   219.24150608403     -3.058E+03 8.041E-01 2.767E+05

 ETOT  3   127.59070427247     -9.165E+01 2.099E-02 5.114E+03

 ETOT  4   117.70809387058     -9.883E+00 4.173E-03 1.474E+02

 ETOT  5   117.58397279852     -1.241E-01 1.778E-05 3.057E+01

 ETOT  6   117.43264778166     -1.513E-01 8.809E-05 3.720E+00

 ETOT  7   117.43151329311     -1.134E-03 1.760E-06 4.079E+00

 ETOT  8   117.42903683130     -2.476E-03 3.385E-06 1.628E-01

 ETOT  9   117.42891898244     -1.178E-04 9.094E-08 1.281E-02

 ETOT 10   117.42889007804     -2.890E-05 4.760E-08 3.630E-03

 ETOT 11   117.42888678736     -3.291E-06 1.410E-09 4.945E-04

 ETOT 12   117.42888657590     -2.115E-07 2.660E-10 4.423E-05

 ETOT 13   117.42888652242     -5.348E-08 7.501E-11 6.060E-06

 ETOT 14   117.42888651723     -5.191E-09 3.270E-12 6.735E-06

 ETOT 15   117.42888651023     -6.997E-09 4.322E-12 3.471E-06

 ETOT 16   117.42888650649     -3.745E-09 4.489E-12 5.649E-07

 ETOT 17   117.42888650628     -2.082E-10 7.226E-14 1.950E-07

 ETOT 18   117.42888650603     -2.483E-10 1.281E-13 3.825E-08

 ETOT 19   117.42888650598     -5.198E-11 2.374E-14 3.284E-08

 ETOT 20   117.42888650596     -2.309E-11 3.016E-14 1.178E-09

 ETOT 21   117.42888650595     -3.212E-12 9.333E-16 1.711E-09

 At SCF step   21   max residual=  9.33E-16 < tolwfr=  1.00E-15 =>converged.
================================================================================

 ----iterations are completed or convergence reached----

 Mean square residual over all n,k,spin=   38.481E-17; max=  93.326E-17
   0.0000  0.0000 -0.3750    1  9.04583E-16 kpt; spin; max resid(k); each band:
  5.61E-16 9.05E-16 1.46E-16 1.46E-16
   0.0000  0.0000 -0.1250    1  9.33264E-16 kpt; spin; max resid(k); each band:
  1.54E-16 9.33E-16 1.98E-16 1.98E-16
   0.0000  0.0000  0.1250    1  6.93880E-16 kpt; spin; max resid(k); each band:
  6.94E-16 2.41E-16 2.55E-16 2.55E-16
   0.0000  0.0000  0.3750    1  6.23392E-16 kpt; spin; max resid(k); each band:
  4.64E-16 6.23E-16 1.92E-16 1.92E-16

 Thirteen components of 2nd-order total energy (hartree) are
 1,2,3: 0th-order hamiltonian combined with 1st-order wavefunctions
     kin0=   4.22039976E+01 eigvalue=   1.69522043E+01  local=  -3.00225284E+01
 4,5,6: 1st-order hamiltonian combined with 1st and 0th-order wfs
 loc psp =  -1.42151965E+02  Hartree=   4.95241772E+01     xc=  -7.58186616E+00
 note that "loc psp" includes a xc core correction that could be resolved
 7,8,9: eventually, occupation + non-local contributions
    edocc=   0.00000000E+00     enl0=   0.00000000E+00   enl1=   0.00000000E+00
 1-9 gives the relaxation energy (to be shifted if some occ is /=2.0)
   erelax=  -7.10759800E+01
 10,11,12 Non-relaxation  contributions : frozen-wavefunctions and Ewald
 fr.local=   3.65672732E+01 fr.nonlo=   0.00000000E+00  Ewald=   1.51937593E+02
 13,14 Frozen wf xc core corrections (1) and (2)
 frxc 1  =   0.00000000E+00  frxc 2 =   0.00000000E+00
 Resulting in :
 2DEtotal=    0.1174288865E+03 Ha. Also 2DEtotal=    0.319540250697E+04 eV
    (2DErelax=   -7.1075979976E+01 Ha. 2DEnonrelax=    1.8850486648E+02 Ha)
    (  non-var. 2DEtotal :    1.1742888422E+02 Ha)

================================================================================

 ---- first-order wavefunction calculations are completed ----


 ==> Compute Derivative Database <==
  
  Ewald part of the dynamical matrix
     j1       j2             matrix element
  dir pert dir pert     real part   imaginary part
  
   1    1   3    1        -0.0000000000         0.0000000000
  
   2    1   3    1        -0.0000000000        -0.0000000000
  
   3    1   3    1       151.9375933290         0.0000000000
  
   1    2   3    1         0.0000000000         0.0000000000
  
   2    2   3    1         0.0000000000         0.0000000000
  
   3    2   3    1      -107.8906745303        -3.7667826572
  
  Frozen wf local part of the dynamical matrix
     j1       j2             matrix element
  dir pert dir pert     real part   imaginary part
  
   1    1   3    1         0.0000000001         0.0000000000
  
   2    1   3    1        -0.0000000002         0.0000000000
  
   3    1   3    1        36.5672731529         0.0000000000
  
   1    2   3    1         0.0000000000         0.0000000000
  
   2    2   3    1         0.0000000000         0.0000000000
  
   3    2   3    1         0.0000000000         0.0000000000
  
  Frozen wf non-local part of the dynamical matrix
     j1       j2             matrix element
  dir pert dir pert     real part   imaginary part
  
   1    1   3    1         0.0000000000         0.0000000000
  
   2    1   3    1         0.0000000000         0.0000000000
  
   3    1   3    1         0.0000000000         0.0000000000
  
   1    2   3    1         0.0000000000         0.0000000000
  
   2    2   3    1         0.0000000000         0.0000000000
  
   3    2   3    1         0.0000000000         0.0000000000
  
  Frozen wf xc core (1) part of the dynamical matrix
     j1       j2             matrix element
  dir pert dir pert     real part   imaginary part
  
   1    1   3    1         0.0000000000         0.0000000000
  
   2    1   3    1         0.0000000000         0.0000000000
  
   3    1   3    1         0.0000000000         0.0000000000
  
   1    2   3    1         0.0000000000         0.0000000000
  
   2    2   3    1         0.0000000000         0.0000000000
  
   3    2   3    1         0.0000000000         0.0000000000
  
  Frozen wf xc core (2) part of the dynamical matrix
     j1       j2             matrix element
  dir pert dir pert     real part   imaginary part
  
   1    1   3    1         0.0000000000         0.0000000000
  
   2    1   3    1         0.0000000000         0.0000000000
  
   3    1   3    1         0.0000000000         0.0000000000
  
   1    2   3    1         0.0000000000         0.0000000000
  
   2    2   3    1         0.0000000000         0.0000000000
  
   3    2   3    1         0.0000000000         0.0000000000
  
  Non-stationary local part of the 2-order matrix
     j1       j2             matrix element
  dir pert dir pert     real part   imaginary part
  
   1    1   3    1        -0.0000000000         0.0000000000
  
   2    1   3    1        -0.0000000000         0.0000000001
  
   3    1   3    1       -71.0759822641         0.0000001681
  
   1    2   3    1         0.0000000001        -0.0000000000
  
   2    2   3    1        -0.0000000002        -0.0000000000
  
   3    2   3    1       -10.0453802665         4.6464702440
  
  Non-stationary non-local part of the 2nd-order matrix
     j1       j2             matrix element
  dir pert dir pert     real part   imaginary part
  
   1    1   3    1         0.0000000000         0.0000000000
  
   2    1   3    1         0.0000000000         0.0000000000
  
   3    1   3    1         0.0000000000         0.0000000000
  
   1    2   3    1         0.0000000000         0.0000000000
  
   2    2   3    1         0.0000000000         0.0000000000
  
   3    2   3    1         0.0000000000         0.0000000000
  
  2nd-order matrix (non-cartesian coordinates, masses not included,
   asr not included )
     j1       j2             matrix element
  dir pert dir pert     real part     imaginary part
  
   1    1   3    1         0.0000000001         0.0000000000
  
   2    1   3    1        -0.0000000002         0.0000000001
  
   3    1   1    1         0.0000000001        -0.0000000000
   3    1   2    1        -0.0000000002        -0.0000000001
   3    1   3    1       117.4288842178         0.0000000000
   3    1   1    2         0.0000000001         0.0000000000
   3    1   2    2        -0.0000000002         0.0000000000
   3    1   3    2      -117.9360547968        -0.8796875868
  
   1    2   3    1         0.0000000001        -0.0000000000
  
   2    2   3    1        -0.0000000002        -0.0000000000
  
   3    2   3    1      -117.9360547968         0.8796875868
  
  
  Dynamical matrix, in cartesian coordinates,
   if specified in the inputs, asr has been imposed
     j1       j2             matrix element
  dir pert dir pert     real part    imaginary part
  
   1    1   3    1         0.0000000000         0.0000000000
  
   2    1   3    1        -0.0000000000         0.0000000000
  
   3    1   1    1         0.0000000000        -0.0000000000
   3    1   2    1        -0.0000000000        -0.0000000000
   3    1   3    1         1.1742888422         0.0000000000
   3    1   1    2         0.0000000000         0.0000000000
   3    1   2    2        -0.0000000000         0.0000000000
   3    1   3    2        -1.1793605480        -0.0087968759
  
   1    2   3    1         0.0000000000        -0.0000000000
  
   2    2   3    1        -0.0000000000        -0.0000000000
  
   3    2   3    1        -1.1793605480         0.0087968759

  Phonon wavevector (reduced coordinates) :  0.00000  0.00000  0.21000
 Phonon energies in Hartree :
   0.000000E+00  0.000000E+00  0.000000E+00  0.000000E+00  0.000000E+00
   2.538092E-02
 Phonon frequencies in cm-1    :
-  0.000000E+00  0.000000E+00  0.000000E+00  0.000000E+00  0.000000E+00
-  5.570469E+03
 chkph3 : WARNING -
  The dynamical matrix was incomplete : phonon frequencies may be wrong ...

== END DATASET(S) ==============================================================
================================================================================
  
 -outvars: echo values of variables after computation  --------
            acell      1.0000000000E+01  1.0000000000E+01  1.0000000000E+01 Bohr
              amu      1.00000000E+00
           diemac1     1.50000000E+00
           diemac2     1.50000000E+00
           diemac3     1.00000000E+00
           diemac4     1.50000000E+00
           diemac5     1.50000000E+00
           diemix1     1.00000000E+00
           diemix2     1.00000000E+00
           diemix3     7.00000000E-01
           diemix4     1.00000000E+00
           diemix5     1.50000000E-01
             ecut      1.20000000E+00 Hartree
           etotal1    -6.8435122468E+00
           etotal3     1.1776993569E+02
           etotal5     1.1742888651E+02
            fcart1     2.4581396220E-13  7.8125620371E-14 -7.3751538381E-01
                      -2.4581396220E-13 -7.8125620371E-14  7.3751538381E-01
            fcart3     0.0000000000E+00  0.0000000000E+00  0.0000000000E+00
                       0.0000000000E+00  0.0000000000E+00  0.0000000000E+00
            fcart5     0.0000000000E+00  0.0000000000E+00  0.0000000000E+00
                       0.0000000000E+00  0.0000000000E+00  0.0000000000E+00
-          fftalg         312
           getden1          0
           getden2          1
           getden3          0
           getden4          1
           getden5          0
           getwfk1          0
           getwfk2          1
           getwfk3          1
           getwfk4          1
           getwfk5          1
           getwfq1          0
           getwfq2          0
           getwfq3          2
           getwfq4          0
           getwfq5          4
             iscf1          7
             iscf2         -2
             iscf3          7
             iscf4         -2
             iscf5          7
              ixc           3
           jdtset        1    2    3    4    5
              kpt      0.00000000E+00  0.00000000E+00 -3.75000000E-01
                       0.00000000E+00  0.00000000E+00 -1.25000000E-01
                       0.00000000E+00  0.00000000E+00  1.25000000E-01
                       0.00000000E+00  0.00000000E+00  3.75000000E-01
           kptopt           0
P           mkmem           4
P          mkqmem           4
P          mk1mem           4
            natom           2
            nband           4
           nbdbuf1          0
           nbdbuf2          2
           nbdbuf3          0
           nbdbuf4          2
           nbdbuf5          0
           ndtset           5
            ngfft          16      16      16
             nkpt           4
             nqpt1          0
             nqpt2          1
             nqpt3          1
             nqpt4          1
             nqpt5          1
            nstep1         30
            nstep2         30
            nstep3         30
            nstep4         30
            nstep5         60
             nsym           1
           ntypat           1
              occ      2.000000  2.000000  2.000000  2.000000
        optdriver1          0
        optdriver2          0
        optdriver3          1
        optdriver4          0
        optdriver5          1
           prtvol1          0
           prtvol2          0
           prtvol3         10
           prtvol4          0
           prtvol5         10
              qpt1     0.00000000E+00  0.00000000E+00  0.00000000E+00
              qpt2     0.00000000E+00  0.00000000E+00  5.00000000E-01
              qpt3     0.00000000E+00  0.00000000E+00  5.00000000E-01
              qpt4     0.00000000E+00  0.00000000E+00  2.10000000E-01
              qpt5     0.00000000E+00  0.00000000E+00  2.10000000E-01
            rfdir1          0       0       0
            rfdir2          0       0       0
            rfdir3          0       0       1
            rfdir4          0       0       0
            rfdir5          0       0       1
           rfphon1          0
           rfphon2          0
           rfphon3          1
           rfphon4          0
           rfphon5          1
          spgroup           1
           strten1     3.1515360732E-04  3.1515360731E-04 -1.8825549858E-03
                       0.0000000000E+00 -3.7860894618E-15  0.0000000000E+00
           strten3     0.0000000000E+00  0.0000000000E+00  0.0000000000E+00
                       0.0000000000E+00  0.0000000000E+00  0.0000000000E+00
           strten5     0.0000000000E+00  0.0000000000E+00  0.0000000000E+00
                       0.0000000000E+00  0.0000000000E+00  0.0000000000E+00
           tolwfr1     1.00000000E-22
           tolwfr2     1.00000000E-22
           tolwfr3     1.00000000E-15
           tolwfr4     1.00000000E-22
           tolwfr5     1.00000000E-15
            typat      1  1
              wtk1       0.25000    0.25000    0.25000    0.25000
              wtk2       1.00000    1.00000    1.00000    1.00000
              wtk3       0.25000    0.25000    0.25000    0.25000
              wtk4       1.00000    1.00000    1.00000    1.00000
              wtk5       0.25000    0.25000    0.25000    0.25000
           xangst      0.0000000000E+00  0.0000000000E+00 -7.9376581289E-01
                       0.0000000000E+00  0.0000000000E+00  7.9376581289E-01
            xcart      0.0000000000E+00  0.0000000000E+00 -1.5000000000E+00
                       0.0000000000E+00  0.0000000000E+00  1.5000000000E+00
             xred      0.0000000000E+00  0.0000000000E+00 -1.5000000000E-01
                       0.0000000000E+00  0.0000000000E+00  1.5000000000E-01
            znucl       32.00000

================================================================================


- Timing analysis has been suppressed with timopt=0



================================================================================

 Suggested references for the acknowledgment of ABINIT usage.

 The users of ABINIT have little formal obligations with respect to the ABINIT group
 (those specified in the GNU General Public License, http://www.gnu.org/copyleft/gpl.txt).
 However, it is common practice in the scientific literature,
 to acknowledge the efforts of people that have made the research possible.
 In this spirit, please find below suggested citations of work written by ABINIT developers,
 corresponding to implementations inside of ABINIT that you have used in the present run.
 Note also that it will be of great value to readers of publications presenting these results,
 to read papers enabling them to understand the theoretical formalism and details
 of the ABINIT implementation.
 For information on why they are suggested, see also https://docs.abinit.org/theory/acknowledgments.
-
- [1] The Abinit project: Impact, environment and recent developments.
- Computer Phys. Comm. 248, 107042 (2020).
- X.Gonze, B. Amadon, G. Antonius, F.Arnardi, L.Baguet, J.-M.Beuken,
- J.Bieder, F.Bottin, J.Bouchet, E.Bousquet, N.Brouwer, F.Bruneval,
- G.Brunin, T.Cavignac, J.-B. Charraud, Wei Chen, M.Cote, S.Cottenier,
- J.Denier, G.Geneste, Ph.Ghosez, M.Giantomassi, Y.Gillet, O.Gingras,
- D.R.Hamann, G.Hautier, Xu He, N.Helbig, N.Holzwarth, Y.Jia, F.Jollet,
- W.Lafargue-Dit-Hauret, K.Lejaeghere, M.A.L.Marques, A.Martin, C.Martins,
- H.P.C. Miranda, F.Naccarato, K. Persson, G.Petretto, V.Planes, Y.Pouillon,
- S.Prokhorenko, F.Ricci, G.-M.Rignanese, A.H.Romero, M.M.Schmitt, M.Torrent,
- M.J.van Setten, B.Van Troeye, M.J.Verstraete, G.Zerah and J.W.Zwanzig
- Comment: the fifth generic paper describing the ABINIT project.
- Note that a version of this paper, that is not formatted for Computer Phys. Comm. 
- is available at https://www.abinit.org/sites/default/files/ABINIT20.pdf .
- The licence allows the authors to put it on the Web.
- DOI and bibtex: see https://docs.abinit.org/theory/bibliography/#gonze2020
-
- [2] First-principles responses of solids to atomic displacements and homogeneous electric fields:,
- implementation of a conjugate-gradient algorithm. X. Gonze, Phys. Rev. B55, 10337 (1997).
- Comment: Non-vanishing rfphon and/or rfelfd, in the norm-conserving case.
- DOI and bibtex: see https://docs.abinit.org/theory/bibliography/#gonze1997
-
- [3] Dynamical matrices, Born effective charges, dielectric permittivity tensors, and ,
- interatomic force constants from density-functional perturbation theory,
- X. Gonze and C. Lee, Phys. Rev. B55, 10355 (1997).
- Comment: Non-vanishing rfphon and/or rfelfd, in the norm-conserving case.
- DOI and bibtex: see https://docs.abinit.org/theory/bibliography/#gonze1997a
-
- [4] Recent developments in the ABINIT software package.
- Computer Phys. Comm. 205, 106 (2016).
- X.Gonze, F.Jollet, F.Abreu Araujo, D.Adams, B.Amadon, T.Applencourt,
- C.Audouze, J.-M.Beuken, J.Bieder, A.Bokhanchuk, E.Bousquet, F.Bruneval
- D.Caliste, M.Cote, F.Dahm, F.Da Pieve, M.Delaveau, M.Di Gennaro,
- B.Dorado, C.Espejo, G.Geneste, L.Genovese, A.Gerossier, M.Giantomassi,
- Y.Gillet, D.R.Hamann, L.He, G.Jomard, J.Laflamme Janssen, S.Le Roux,
- A.Levitt, A.Lherbier, F.Liu, I.Lukacevic, A.Martin, C.Martins,
- M.J.T.Oliveira, S.Ponce, Y.Pouillon, T.Rangel, G.-M.Rignanese,
- A.H.Romero, B.Rousseau, O.Rubel, A.A.Shukri, M.Stankovski, M.Torrent,
- M.J.Van Setten, B.Van Troeye, M.J.Verstraete, D.Waroquier, J.Wiktor,
- B.Xu, A.Zhou, J.W.Zwanziger.
- Comment: the fourth generic paper describing the ABINIT project.
- Note that a version of this paper, that is not formatted for Computer Phys. Comm. 
- is available at https://www.abinit.org/sites/default/files/ABINIT16.pdf .
- The licence allows the authors to put it on the Web.
- DOI and bibtex: see https://docs.abinit.org/theory/bibliography/#gonze2016
-
- [5] ABINIT: First-principles approach of materials and nanosystem properties.
- Computer Phys. Comm. 180, 2582-2615 (2009).
- X. Gonze, B. Amadon, P.-M. Anglade, J.-M. Beuken, F. Bottin, P. Boulanger, F. Bruneval,
- D. Caliste, R. Caracas, M. Cote, T. Deutsch, L. Genovese, Ph. Ghosez, M. Giantomassi
- S. Goedecker, D.R. Hamann, P. Hermet, F. Jollet, G. Jomard, S. Leroux, M. Mancini, S. Mazevet,
- M.J.T. Oliveira, G. Onida, Y. Pouillon, T. Rangel, G.-M. Rignanese, D. Sangalli, R. Shaltaf,
- M. Torrent, M.J. Verstraete, G. Zerah, J.W. Zwanziger
- Comment: the third generic paper describing the ABINIT project.
- Note that a version of this paper, that is not formatted for Computer Phys. Comm. 
- is available at https://www.abinit.org/sites/default/files/ABINIT_CPC_v10.pdf .
- The licence allows the authors to put it on the Web.
- DOI and bibtex: see https://docs.abinit.org/theory/bibliography/#gonze2009
-
- Proc.   0 individual time (sec): cpu=          1.8  wall=          2.2

================================================================================

 Calculation completed.
.Delivered  47 WARNINGs and  48 COMMENTs to log file.
+Overall time at end (sec) : cpu=          1.8  wall=          2.2
