
.Version 9.0.0 of ABINIT 
.(MPI version, prepared for a x86_64_linux_gnu9.2 computer) 

.Copyright (C) 1998-2020 ABINIT group . 
 ABINIT comes with ABSOLUTELY NO WARRANTY.
 It is free software, and you are welcome to redistribute it
 under certain conditions (GNU General Public License,
 see ~abinit/COPYING or http://www.gnu.org/copyleft/gpl.txt).

 ABINIT is a project of the Universite Catholique de Louvain,
 Corning Inc. and other collaborators, see ~abinit/doc/developers/contributors.txt .
 Please read https://docs.abinit.org/theory/acknowledgments for suggested
 acknowledgments of the ABINIT effort.
 For more information, see https://www.abinit.org .

.Starting date : Tue 11 Feb 2020.
- ( at 02h06 )
  
- input  file    -> /home/gmatteo/git_repos/abinit/_abiref_gnu9.2_openmpi/tests/Test_suite/v2_t34/t34.in
- output file    -> t34.out
- root for input  files -> t34i
- root for output files -> t34o


 DATASET    1 : space group Pm m 2 (# 25); Bravais oP (primitive ortho.)
================================================================================
 Values of the parameters that define the memory need for DATASET  1.
     intxc =       0    ionmov =       0      iscf =       7    lmnmax =       1
     lnmax =       1     mgfft =      24  mpssoang =       1    mqgrid =    3001
     natom =       2  nloc_mem =       1    nspden =       1   nspinor =       1
    nsppol =       1      nsym =       4    n1xccc =       0    ntypat =       1
    occopt =       1   xclevel =       1
-    mband =           2        mffmem =           1         mkmem =           1
       mpw =         280          nfft =        9600          nkpt =           1
================================================================================
P This job should need less than                       3.031 Mbytes of memory.
  Rough estimation (10% accuracy) of disk space for files :
_ WF disk file :      0.011 Mbytes ; DEN or POT disk file :      0.075 Mbytes.
================================================================================


 DATASET    2 : space group Pm m 2 (# 25); Bravais oP (primitive ortho.)
================================================================================
 Values of the parameters that define the memory need for DATASET  2 (RF).
     intxc =       0      iscf =       7    lmnmax =       1     lnmax =       1
     mgfft =      24  mpssoang =       1    mqgrid =    3001     natom =       2
  nloc_mem =       1    nspden =       1   nspinor =       1    nsppol =       1
      nsym =       4    n1xccc =       0    ntypat =       1    occopt =       1
   xclevel =       1
-    mband =           2        mffmem =           1         mkmem =           1
-   mkqmem =           1        mk1mem =           1           mpw =         559
      nfft =        9600          nkpt =           1
================================================================================
P This job should need less than                       2.564 Mbytes of memory.
  Rough estimation (10% accuracy) of disk space for files :
_ WF disk file :      0.019 Mbytes ; DEN or POT disk file :      0.075 Mbytes.
================================================================================

--------------------------------------------------------------------------------
------------- Echo of variables that govern the present computation ------------
--------------------------------------------------------------------------------
-
- outvars: echo of selected default values                                      
-   iomode0 =  0 , fftalg0 =312 , wfoptalg0 =  0
-
- outvars: echo of global parameters not present in the input file              
-  max_nthreads =    0
-
 -outvars: echo values of preprocessed input variables --------
            acell      1.2000000000E+01  1.0000000000E+01  1.0000000000E+01 Bohr
              amu      1.00800000E+00
           diemac      1.00000000E+00
           diemix1     5.00000000E-01
           diemix2     3.50000000E-01
             ecut      4.50000000E+00 Hartree
-          fftalg         312
           getwfk          -1
           istwfk1       2
           istwfk2       1
           jdtset        1    2
           kptopt           0
P           mkmem           1
P          mkqmem           1
P          mk1mem           1
            natom           2
            nband           2
           ndtset           2
            ngfft          24      20      20
             nkpt           1
            nline           3
             nqpt1          0
             nqpt2          1
            nstep          20
             nsym           4
           ntypat           1
              occ      2.000000  0.000000
        optdriver1          0
        optdriver2          1
          rfatpol1          1       1
          rfatpol2          2       2
            rfdir1          0       0       0
            rfdir2          1       0       0
           rfphon1          0
           rfphon2          1
          spgroup          25
           symrel      1  0  0   0  1  0   0  0  1       1  0  0   0  1  0   0  0 -1
                       1  0  0   0 -1  0   0  0  1       1  0  0   0 -1  0   0  0 -1
           tolvrs      1.00000000E-15
            typat      1  1
           xangst     -2.9845594564E-01  0.0000000000E+00  0.0000000000E+00
                       2.9845594564E-01  0.0000000000E+00  0.0000000000E+00
            xcart     -5.6400000000E-01  0.0000000000E+00  0.0000000000E+00
                       5.6400000000E-01  0.0000000000E+00  0.0000000000E+00
             xred     -4.7000000000E-02  0.0000000000E+00  0.0000000000E+00
                       4.7000000000E-02  0.0000000000E+00  0.0000000000E+00
            znucl        1.00000

================================================================================

 chkinp: Checking input parameters for consistency, jdtset=   1.

 chkinp: Checking input parameters for consistency, jdtset=   2.

================================================================================
== DATASET  1 ==================================================================
-   nproc =    1

 Exchange-correlation functional for the present dataset will be:
  LDA: new Teter (4/93) with spin-polarized option - ixc=1
 Citation for XC functional:
  S. Goedecker, M. Teter, J. Huetter, PRB 54, 1703 (1996)

 Real(R)+Recip(G) space primitive vectors, cartesian coordinates (Bohr,Bohr^-1):
 R(1)= 12.0000000  0.0000000  0.0000000  G(1)=  0.0833333  0.0000000  0.0000000
 R(2)=  0.0000000 10.0000000  0.0000000  G(2)=  0.0000000  0.1000000  0.0000000
 R(3)=  0.0000000  0.0000000 10.0000000  G(3)=  0.0000000  0.0000000  0.1000000
 Unit cell volume ucvol=  1.2000000E+03 bohr^3
 Angles (23,13,12)=  9.00000000E+01  9.00000000E+01  9.00000000E+01 degrees

 getcut: wavevector=  0.0000  0.0000  0.0000  ngfft=  24  20  20
         ecut(hartree)=      4.500   => boxcut(ratio)=   2.09440

--- Pseudopotential description ------------------------------------------------
- pspini: atom type   1  psp file is /home/gmatteo/git_repos/abinit/tests/Psps_for_tests/1h.pspnc
- pspatm: opening atomic psp file    /home/gmatteo/git_repos/abinit/tests/Psps_for_tests/1h.pspnc
-  Troullier-Martins psp for element  H         Thu Oct 27 17:28:54 EDT 1994
-  1.00000   1.00000    940714                znucl, zion, pspdat
    1    1    0    0      2001   0.00000      pspcod,pspxc,lmax,lloc,mmax,r2well
    0   7.740  11.990    0   1.5855604        l,e99.0,e99.9,nproj,rcpsp
   0.00000000   0.00000000   0.00000000   0.00000000     rms, ekb1, ekb2, epsatm
    0.00000000000000    0.00000000000000    0.00000000000000   rchrg,fchrg,qchrg
 Note: local psp for atom with Z=  1.0
  pspatm : epsatm=    0.04198703
         --- l  ekb(1:nproj) -->
 pspatm: atomic psp has been read  and splines computed

   1.67948119E-01                                ecore*ucvol(ha*bohr**3)
--------------------------------------------------------------------------------

_setup2: Arith. and geom. avg. npw (full set) are     559.000     559.000

================================================================================

     iter   Etot(hartree)      deltaE(h)  residm     vres2
 ETOT  1  -1.0557818887202    -1.056E+00 4.066E-04 3.368E+00
 ETOT  2  -1.0578474665493    -2.066E-03 6.546E-08 7.566E-01
 ETOT  3  -1.0582282782484    -3.808E-04 2.857E-05 4.039E-02
 ETOT  4  -1.0582338759675    -5.598E-06 5.181E-08 3.259E-03
 ETOT  5  -1.0582341894528    -3.135E-07 1.922E-09 7.886E-06
 ETOT  6  -1.0582341895495    -9.673E-11 8.344E-12 8.973E-07
 ETOT  7  -1.0582341895633    -1.385E-11 1.242E-13 3.335E-09
 ETOT  8  -1.0582341895634    -8.860E-14 3.991E-15 4.961E-10
 ETOT  9  -1.0582341895634    -6.217E-15 9.742E-17 1.049E-12
 ETOT 10  -1.0582341895634     5.107E-15 6.339E-18 1.206E-13
 ETOT 11  -1.0582341895634    -6.217E-15 1.905E-19 1.266E-14
 ETOT 12  -1.0582341895634     1.665E-14 8.267E-21 8.575E-17

 At SCF step   12       vres2   =  8.57E-17 < tolvrs=  1.00E-15 =>converged.

 Cartesian components of stress tensor (hartree/bohr^3)
  sigma(1 1)= -2.10309098E-04  sigma(3 2)=  0.00000000E+00
  sigma(2 2)=  1.07728136E-04  sigma(3 1)=  0.00000000E+00
  sigma(3 3)=  1.07728136E-04  sigma(2 1)=  0.00000000E+00


--- !ResultsGS
iteration_state: {"dtset": 1, }
comment   : Summary of ground state results
natom     :        2
nsppol    :        1
nspinor   :        1
nspden    :        1
nelect    :  2.000000000000000E+000
charge    :  0.000000000000000E+000
lattice_lengths: [  12.00000,   10.00000,   10.00000, ]
lattice_angles: [ 90.000,  90.000,  90.000, ]
cutoff_energies: {"ecut":   4.5, "pawecutdg":  -1.0, }
convergence: {
    "deltae":  1.67E-14, "res2":  8.57E-17, 
    "residm":  8.27E-21, "diffor": undef, 
}
etotal    : -1.058234189563419E+000
entropy   :  0.000000000000000E+000
fermie    : -3.959456643857357E-001
cartesian_stress_tensor:
- [-2.103090977361906E-004,  0.000000000000000E+000,  0.000000000000000E+000, ]
- [ 0.000000000000000E+000,  1.077281363165593E-004,  0.000000000000000E+000, ]
- [ 0.000000000000000E+000,  0.000000000000000E+000,  1.077281363104612E-004, ]
pressure_GPa: -5.047836268968000E-002
cartesian_forces:
- [-2.621528104842975E-001, -0.000000000000000E+000, -0.000000000000000E+000, ]
- [ 2.621528104842975E-001, -0.000000000000000E+000, -0.000000000000000E+000, ]
force_length_stats: {"min":  2.621528104842975E-001, "max":  2.621528104842975E-001, "mean":  2.621528104842975E-001, }
...

 Integrated electronic density in atomic spheres:
 ------------------------------------------------
 Atom  Sphere_radius  Integrated_density
    1        2.00000          1.58558757
    2        2.00000          1.58558757
================================================================================

 ----iterations are completed or convergence reached----

 Mean square residual over all n,k,spin=   43.644E-22; max=  82.671E-22
 reduced coordinates (array xred) for    2 atoms
      -0.047000000000      0.000000000000      0.000000000000
       0.047000000000      0.000000000000      0.000000000000
 rms dE/dt=  1.8162E+00; max dE/dt=  3.1458E+00; dE/dt below (all hartree)
    1       3.145833725857      0.000000000000      0.000000000000
    2      -3.145833725766      0.000000000000      0.000000000000

 cartesian coordinates (angstrom) at end:
    1     -0.29845594564476     0.00000000000000     0.00000000000000
    2      0.29845594564476     0.00000000000000     0.00000000000000

 cartesian forces (hartree/bohr) at end:
    1     -0.26215281048430    -0.00000000000000    -0.00000000000000
    2      0.26215281048430    -0.00000000000000    -0.00000000000000
 frms,max,avg= 1.5135400E-01 2.6215281E-01  -3.761E-12  0.000E+00  0.000E+00 h/b

 cartesian forces (eV/Angstrom) at end:
    1    -13.48043838674283    -0.00000000000000    -0.00000000000000
    2     13.48043838674283    -0.00000000000000    -0.00000000000000
 frms,max,avg= 7.7829347E+00 1.3480438E+01  -1.934E-10  0.000E+00  0.000E+00 e/A
 length scales= 12.000000000000 10.000000000000 10.000000000000 bohr
              =  6.350126503080  5.291772085900  5.291772085900 angstroms
 prteigrs : about to open file t34o_DS1_EIG
 Fermi (or HOMO) energy (hartree) =  -0.39595   Average Vxc (hartree)=  -0.05855
 Eigenvalues (hartree) for nkpt=   1  k points:
 kpt#   1, nband=  2, wtk=  1.00000, kpt=  0.0000  0.0000  0.0000 (reduced coord)
  -0.39595   -0.01239

--- !EnergyTerms
iteration_state     : {"dtset": 1, }
comment             : Components of total free energy in Hartree
kinetic             :  1.09286925636146E+00
hartree             :  8.31245191644033E-01
xc                  : -6.69271171677517E-01
Ewald energy        :  3.59741353824815E-01
psp_core            :  1.39956766170961E-04
local_psp           : -2.67295877648238E+00
non_local_psp       :  0.00000000000000E+00
total_energy        : -1.05823418956342E+00
total_energy_eV     : -2.87960167459862E+01
band_energy         : -7.91891328771471E-01
...


 Cartesian components of stress tensor (hartree/bohr^3)
  sigma(1 1)= -2.10309098E-04  sigma(3 2)=  0.00000000E+00
  sigma(2 2)=  1.07728136E-04  sigma(3 1)=  0.00000000E+00
  sigma(3 3)=  1.07728136E-04  sigma(2 1)=  0.00000000E+00

-Cartesian components of stress tensor (GPa)         [Pressure= -5.0478E-02 GPa]
- sigma(1 1)= -6.18750624E+00  sigma(3 2)=  0.00000000E+00
- sigma(2 2)=  3.16947066E+00  sigma(3 1)=  0.00000000E+00
- sigma(3 3)=  3.16947066E+00  sigma(2 1)=  0.00000000E+00

================================================================================
== DATASET  2 ==================================================================
-   nproc =    1

 mkfilename : getwfk/=0, take file _WFK from output of DATASET   1.

 Exchange-correlation functional for the present dataset will be:
  LDA: new Teter (4/93) with spin-polarized option - ixc=1
 Citation for XC functional:
  S. Goedecker, M. Teter, J. Huetter, PRB 54, 1703 (1996)

 Real(R)+Recip(G) space primitive vectors, cartesian coordinates (Bohr,Bohr^-1):
 R(1)= 12.0000000  0.0000000  0.0000000  G(1)=  0.0833333  0.0000000  0.0000000
 R(2)=  0.0000000 10.0000000  0.0000000  G(2)=  0.0000000  0.1000000  0.0000000
 R(3)=  0.0000000  0.0000000 10.0000000  G(3)=  0.0000000  0.0000000  0.1000000
 Unit cell volume ucvol=  1.2000000E+03 bohr^3
 Angles (23,13,12)=  9.00000000E+01  9.00000000E+01  9.00000000E+01 degrees
 setup1 : take into account q-point for computing boxcut.

 getcut: wavevector=  0.0000  0.0000  0.0000  ngfft=  24  20  20
         ecut(hartree)=      4.500   => boxcut(ratio)=   2.09440
--------------------------------------------------------------------------------

-inwffil : will read wavefunctions from disk file t34o_DS1_WFK

 ==>  initialize data related to q vector <== 

 The list of irreducible perturbations for this q vector is:
    1)    idir= 1    ipert=   2

================================================================================

--------------------------------------------------------------------------------
 Perturbation wavevector (in red.coord.)   0.000000  0.000000  0.000000
 Perturbation : displacement of atom   2   along direction   1
 Found     4 symmetries that leave the perturbation invariant.
 symkpt : not enough symmetry to change the number of k points.

--------------------------------------------------------------------------------

-inwffil : will read wavefunctions from disk file t34o_DS1_WFK
--------------------------------------------------------------------------------

 Initialisation of the first-order wave-functions :
  ireadwf=   0

     iter   2DEtotal(Ha)        deltaE(Ha) residm    vres2
-ETOT  1   198.97034995235     -9.570E+01 4.363E-01 4.408E+03
 ETOT  2   191.73686899261     -7.233E+00 9.166E-03 1.175E+03
 ETOT  3   188.74576015295     -2.991E+00 8.321E-03 8.377E+00
 ETOT  4   188.73984632670     -5.914E-03 1.587E-05 3.287E+00
 ETOT  5   188.73842625564     -1.420E-03 3.203E-06 8.342E-02
 ETOT  6   188.73829449657     -1.318E-04 1.631E-07 1.263E-02
 ETOT  7   188.73824615694     -4.834E-05 1.466E-07 8.264E-05
 ETOT  8   188.73824613147     -2.547E-08 3.231E-10 2.396E-05
 ETOT  9   188.73824612812     -3.347E-09 4.383E-11 9.418E-07
 ETOT 10   188.73824612693     -1.186E-09 3.741E-12 6.538E-08
 ETOT 11   188.73824612693     -4.547E-12 7.749E-15 1.763E-09
 ETOT 12   188.73824612693     -1.762E-12 2.028E-15 8.620E-11
 ETOT 13   188.73824612693      4.746E-12 7.065E-17 2.107E-12
 ETOT 14   188.73824612693     -3.155E-12 7.723E-18 6.856E-13
 ETOT 15   188.73824612693      2.558E-12 2.971E-19 2.850E-14
 ETOT 16   188.73824612693     -3.283E-12 1.956E-20 2.314E-16

 At SCF step   16       vres2   =  2.31E-16 < tolvrs=  1.00E-15 =>converged.
================================================================================

 ----iterations are completed or convergence reached----

 Mean square residual over all n,k,spin=   10.466E-21; max=  19.560E-21

 Thirteen components of 2nd-order total energy (hartree) are
 1,2,3: 0th-order hamiltonian combined with 1st-order wavefunctions
     kin0=   1.05459396E+02 eigvalue=   3.02181544E+01  local=  -5.47772481E+01
 4,5,6: 1st-order hamiltonian combined with 1st and 0th-order wfs
 loc psp =  -2.11855346E+02  Hartree=   4.02580605E+01     xc=  -1.84428519E+01
 note that "loc psp" includes a xc core correction that could be resolved
 7,8,9: eventually, occupation + non-local contributions
    edocc=   3.21216241E+00     enl0=   0.00000000E+00   enl1=   0.00000000E+00
 1-9 gives the relaxation energy (to be shifted if some occ is /=2.0)
   erelax=  -1.05927673E+02
 10,11,12 Non-relaxation  contributions : frozen-wavefunctions and Ewald
 fr.local=   9.37228260E+01 fr.nonlo=   0.00000000E+00  Ewald=   2.00943093E+02
 13,14 Frozen wf xc core corrections (1) and (2)
 frxc 1  =   0.00000000E+00  frxc 2 =   0.00000000E+00
 Resulting in :
 2DEtotal=    0.1887382461E+03 Ha. Also 2DEtotal=    0.513582886442E+04 eV
    (2DErelax=   -1.0592767318E+02 Ha. 2DEnonrelax=    2.9466591930E+02 Ha)
    (  non-var. 2DEtotal :    1.8873824613E+02 Ha)

================================================================================

 ---- first-order wavefunction calculations are completed ----


 ==> Compute Derivative Database <==
  
  2nd-order matrix (non-cartesian coordinates, masses not included,
   asr not included )
     j1       j2             matrix element
  dir pert dir pert     real part     imaginary part
  
   1    1   2    1         0.0000000000         0.0000000000
   1    1   3    1        -0.0000000000         0.0000000000
   1    1   1    2      -188.7383697629         0.0000000000
   1    1   2    2        -0.0000000000         0.0000000000
   1    1   3    2         0.0000000000        -0.0000000000
   1    1   2    4         0.0000000000         0.0000000000
   1    1   3    4         0.0000000000         0.0000000000
  
   2    1   1    1         0.0000000000         0.0000000000
   2    1   3    1        -0.0000000000         0.0000000000
   2    1   1    2         0.0000000000         0.0000000000
   2    1   3    2         0.0000000000         0.0000000000
   2    1   1    4         0.0000000000         0.0000000000
   2    1   3    4         0.0000000000         0.0000000000
  
   3    1   1    1        -0.0000000000         0.0000000000
   3    1   2    1        -0.0000000000         0.0000000000
   3    1   1    2         0.0000000000        -0.0000000000
   3    1   2    2         0.0000000000         0.0000000000
   3    1   1    4         0.0000000000         0.0000000000
   3    1   2    4         0.0000000000         0.0000000000
  
   1    2   1    1      -188.7383697629        -0.0000000000
   1    2   2    1         0.0000000000        -0.0000000000
   1    2   3    1         0.0000000000         0.0000000000
   1    2   1    2       188.7382461278         0.0000000000
   1    2   2    2         0.0000000000         0.0000000000
   1    2   3    2         0.0000000000         0.0000000000
   1    2   2    4         0.0000000000         0.0000000000
   1    2   3    4         0.0000000000         0.0000000000
  
   2    2   1    1        -0.0000000000        -0.0000000000
   2    2   3    1         0.0000000000        -0.0000000000
   2    2   1    2         0.0000000000         0.0000000000
   2    2   3    2        -0.0000000000         0.0000000000
   2    2   1    4         0.0000000000         0.0000000000
   2    2   3    4         0.0000000000         0.0000000000
  
   3    2   1    1         0.0000000000         0.0000000000
   3    2   2    1         0.0000000000        -0.0000000000
   3    2   1    2         0.0000000000         0.0000000000
   3    2   2    2        -0.0000000000         0.0000000000
   3    2   1    4         0.0000000000         0.0000000000
   3    2   2    4         0.0000000000         0.0000000000
  
   1    4   2    1         0.0000000000         0.0000000000
   1    4   3    1         0.0000000000         0.0000000000
   1    4   2    2         0.0000000000         0.0000000000
   1    4   3    2         0.0000000000         0.0000000000
   1    4   2    4         0.0000000000         0.0000000000
   1    4   3    4         0.0000000000         0.0000000000
  
   2    4   1    1         0.0000000000         0.0000000000
   2    4   3    1         0.0000000000         0.0000000000
   2    4   1    2         0.0000000000         0.0000000000
   2    4   3    2         0.0000000000         0.0000000000
   2    4   1    4         0.0000000000         0.0000000000
   2    4   3    4         0.0000000000         0.0000000000
  
   3    4   1    1         0.0000000000         0.0000000000
   3    4   2    1         0.0000000000         0.0000000000
   3    4   1    2         0.0000000000         0.0000000000
   3    4   2    2         0.0000000000         0.0000000000
   3    4   1    4         0.0000000000         0.0000000000
   3    4   2    4         0.0000000000         0.0000000000
  
  
  Dynamical matrix, in cartesian coordinates,
   if specified in the inputs, asr has been imposed
     j1       j2             matrix element
  dir pert dir pert     real part    imaginary part
  
   1    1   2    1         0.0000000000         0.0000000000
   1    1   3    1        -0.0000000000         0.0000000000
   1    1   1    2        -1.3106831234         0.0000000000
   1    1   2    2        -0.0000000000         0.0000000000
   1    1   3    2         0.0000000000        -0.0000000000
  
   2    1   1    1         0.0000000000         0.0000000000
   2    1   3    1        -0.0000000000         0.0000000000
   2    1   1    2         0.0000000000         0.0000000000
   2    1   3    2         0.0000000000         0.0000000000
  
   3    1   1    1        -0.0000000000         0.0000000000
   3    1   2    1        -0.0000000000         0.0000000000
   3    1   1    2         0.0000000000        -0.0000000000
   3    1   2    2         0.0000000000         0.0000000000
  
   1    2   1    1        -1.3106831234        -0.0000000000
   1    2   2    1         0.0000000000        -0.0000000000
   1    2   3    1         0.0000000000         0.0000000000
   1    2   1    2         1.3106822648         0.0000000000
   1    2   2    2         0.0000000000         0.0000000000
   1    2   3    2         0.0000000000         0.0000000000
  
   2    2   1    1        -0.0000000000        -0.0000000000
   2    2   3    1         0.0000000000        -0.0000000000
   2    2   1    2         0.0000000000         0.0000000000
   2    2   3    2        -0.0000000000         0.0000000000
  
   3    2   1    1         0.0000000000         0.0000000000
   3    2   2    1         0.0000000000        -0.0000000000
   3    2   1    2         0.0000000000         0.0000000000
   3    2   2    2        -0.0000000000         0.0000000000

  Phonon wavevector (reduced coordinates) :  0.00000  0.00000  0.00000
 Phonon energies in Hartree :
   0.000000E+00  0.000000E+00  0.000000E+00  0.000000E+00  0.000000E+00
   2.670782E-02
 Phonon frequencies in cm-1    :
-  0.000000E+00  0.000000E+00  0.000000E+00  0.000000E+00  0.000000E+00
-  5.861688E+03
 chkph3 : WARNING -
  The dynamical matrix was incomplete : phonon frequencies may be wrong ...

== END DATASET(S) ==============================================================
================================================================================
  
 -outvars: echo values of variables after computation  --------
            acell      1.2000000000E+01  1.0000000000E+01  1.0000000000E+01 Bohr
              amu      1.00800000E+00
           diemac      1.00000000E+00
           diemix1     5.00000000E-01
           diemix2     3.50000000E-01
             ecut      4.50000000E+00 Hartree
           etotal1    -1.0582341896E+00
           etotal2     1.8873824613E+02
            fcart1    -2.6215281048E-01 -0.0000000000E+00 -0.0000000000E+00
                       2.6215281048E-01 -0.0000000000E+00 -0.0000000000E+00
            fcart2     0.0000000000E+00  0.0000000000E+00  0.0000000000E+00
                       0.0000000000E+00  0.0000000000E+00  0.0000000000E+00
-          fftalg         312
           getwfk          -1
           istwfk1       2
           istwfk2       1
           jdtset        1    2
           kptopt           0
P           mkmem           1
P          mkqmem           1
P          mk1mem           1
            natom           2
            nband           2
           ndtset           2
            ngfft          24      20      20
             nkpt           1
            nline           3
             nqpt1          0
             nqpt2          1
            nstep          20
             nsym           4
           ntypat           1
              occ      2.000000  0.000000
        optdriver1          0
        optdriver2          1
          rfatpol1          1       1
          rfatpol2          2       2
            rfdir1          0       0       0
            rfdir2          1       0       0
           rfphon1          0
           rfphon2          1
          spgroup          25
           strten1    -2.1030909774E-04  1.0772813632E-04  1.0772813631E-04
                       0.0000000000E+00  0.0000000000E+00  0.0000000000E+00
           strten2     0.0000000000E+00  0.0000000000E+00  0.0000000000E+00
                       0.0000000000E+00  0.0000000000E+00  0.0000000000E+00
           symrel      1  0  0   0  1  0   0  0  1       1  0  0   0  1  0   0  0 -1
                       1  0  0   0 -1  0   0  0  1       1  0  0   0 -1  0   0  0 -1
           tolvrs      1.00000000E-15
            typat      1  1
           xangst     -2.9845594564E-01  0.0000000000E+00  0.0000000000E+00
                       2.9845594564E-01  0.0000000000E+00  0.0000000000E+00
            xcart     -5.6400000000E-01  0.0000000000E+00  0.0000000000E+00
                       5.6400000000E-01  0.0000000000E+00  0.0000000000E+00
             xred     -4.7000000000E-02  0.0000000000E+00  0.0000000000E+00
                       4.7000000000E-02  0.0000000000E+00  0.0000000000E+00
            znucl        1.00000

================================================================================


- Timing analysis has been suppressed with timopt=0



================================================================================

 Suggested references for the acknowledgment of ABINIT usage.

 The users of ABINIT have little formal obligations with respect to the ABINIT group
 (those specified in the GNU General Public License, http://www.gnu.org/copyleft/gpl.txt).
 However, it is common practice in the scientific literature,
 to acknowledge the efforts of people that have made the research possible.
 In this spirit, please find below suggested citations of work written by ABINIT developers,
 corresponding to implementations inside of ABINIT that you have used in the present run.
 Note also that it will be of great value to readers of publications presenting these results,
 to read papers enabling them to understand the theoretical formalism and details
 of the ABINIT implementation.
 For information on why they are suggested, see also https://docs.abinit.org/theory/acknowledgments.
-
- [1] The Abinit project: Impact, environment and recent developments.
- Computer Phys. Comm. 248, 107042 (2020).
- X.Gonze, B. Amadon, G. Antonius, F.Arnardi, L.Baguet, J.-M.Beuken,
- J.Bieder, F.Bottin, J.Bouchet, E.Bousquet, N.Brouwer, F.Bruneval,
- G.Brunin, T.Cavignac, J.-B. Charraud, Wei Chen, M.Cote, S.Cottenier,
- J.Denier, G.Geneste, Ph.Ghosez, M.Giantomassi, Y.Gillet, O.Gingras,
- D.R.Hamann, G.Hautier, Xu He, N.Helbig, N.Holzwarth, Y.Jia, F.Jollet,
- W.Lafargue-Dit-Hauret, K.Lejaeghere, M.A.L.Marques, A.Martin, C.Martins,
- H.P.C. Miranda, F.Naccarato, K. Persson, G.Petretto, V.Planes, Y.Pouillon,
- S.Prokhorenko, F.Ricci, G.-M.Rignanese, A.H.Romero, M.M.Schmitt, M.Torrent,
- M.J.van Setten, B.Van Troeye, M.J.Verstraete, G.Zerah and J.W.Zwanzig
- Comment: the fifth generic paper describing the ABINIT project.
- Note that a version of this paper, that is not formatted for Computer Phys. Comm. 
- is available at https://www.abinit.org/sites/default/files/ABINIT20.pdf .
- The licence allows the authors to put it on the Web.
- DOI and bibtex: see https://docs.abinit.org/theory/bibliography/#gonze2020
-
- [2] First-principles responses of solids to atomic displacements and homogeneous electric fields:,
- implementation of a conjugate-gradient algorithm. X. Gonze, Phys. Rev. B55, 10337 (1997).
- Comment: Non-vanishing rfphon and/or rfelfd, in the norm-conserving case.
- DOI and bibtex: see https://docs.abinit.org/theory/bibliography/#gonze1997
-
- [3] Dynamical matrices, Born effective charges, dielectric permittivity tensors, and ,
- interatomic force constants from density-functional perturbation theory,
- X. Gonze and C. Lee, Phys. Rev. B55, 10355 (1997).
- Comment: Non-vanishing rfphon and/or rfelfd, in the norm-conserving case.
- DOI and bibtex: see https://docs.abinit.org/theory/bibliography/#gonze1997a
-
- [4] Recent developments in the ABINIT software package.
- Computer Phys. Comm. 205, 106 (2016).
- X.Gonze, F.Jollet, F.Abreu Araujo, D.Adams, B.Amadon, T.Applencourt,
- C.Audouze, J.-M.Beuken, J.Bieder, A.Bokhanchuk, E.Bousquet, F.Bruneval
- D.Caliste, M.Cote, F.Dahm, F.Da Pieve, M.Delaveau, M.Di Gennaro,
- B.Dorado, C.Espejo, G.Geneste, L.Genovese, A.Gerossier, M.Giantomassi,
- Y.Gillet, D.R.Hamann, L.He, G.Jomard, J.Laflamme Janssen, S.Le Roux,
- A.Levitt, A.Lherbier, F.Liu, I.Lukacevic, A.Martin, C.Martins,
- M.J.T.Oliveira, S.Ponce, Y.Pouillon, T.Rangel, G.-M.Rignanese,
- A.H.Romero, B.Rousseau, O.Rubel, A.A.Shukri, M.Stankovski, M.Torrent,
- M.J.Van Setten, B.Van Troeye, M.J.Verstraete, D.Waroquier, J.Wiktor,
- B.Xu, A.Zhou, J.W.Zwanziger.
- Comment: the fourth generic paper describing the ABINIT project.
- Note that a version of this paper, that is not formatted for Computer Phys. Comm. 
- is available at https://www.abinit.org/sites/default/files/ABINIT16.pdf .
- The licence allows the authors to put it on the Web.
- DOI and bibtex: see https://docs.abinit.org/theory/bibliography/#gonze2016
-
- [5] ABINIT: First-principles approach of materials and nanosystem properties.
- Computer Phys. Comm. 180, 2582-2615 (2009).
- X. Gonze, B. Amadon, P.-M. Anglade, J.-M. Beuken, F. Bottin, P. Boulanger, F. Bruneval,
- D. Caliste, R. Caracas, M. Cote, T. Deutsch, L. Genovese, Ph. Ghosez, M. Giantomassi
- S. Goedecker, D.R. Hamann, P. Hermet, F. Jollet, G. Jomard, S. Leroux, M. Mancini, S. Mazevet,
- M.J.T. Oliveira, G. Onida, Y. Pouillon, T. Rangel, G.-M. Rignanese, D. Sangalli, R. Shaltaf,
- M. Torrent, M.J. Verstraete, G. Zerah, J.W. Zwanziger
- Comment: the third generic paper describing the ABINIT project.
- Note that a version of this paper, that is not formatted for Computer Phys. Comm. 
- is available at https://www.abinit.org/sites/default/files/ABINIT_CPC_v10.pdf .
- The licence allows the authors to put it on the Web.
- DOI and bibtex: see https://docs.abinit.org/theory/bibliography/#gonze2009
-
- Proc.   0 individual time (sec): cpu=          0.5  wall=          0.7

================================================================================

 Calculation completed.
.Delivered   2 WARNINGs and  12 COMMENTs to log file.
+Overall time at end (sec) : cpu=          0.5  wall=          0.7
