
.Version 9.3.1 of ABINIT 
.(MPI version, prepared for a x86_64_linux_gnu9.3 computer) 

.Copyright (C) 1998-2020 ABINIT group . 
 ABINIT comes with ABSOLUTELY NO WARRANTY.
 It is free software, and you are welcome to redistribute it
 under certain conditions (GNU General Public License,
 see ~abinit/COPYING or http://www.gnu.org/copyleft/gpl.txt).

 ABINIT is a project of the Universite Catholique de Louvain,
 Corning Inc. and other collaborators, see ~abinit/doc/developers/contributors.txt .
 Please read https://docs.abinit.org/theory/acknowledgments for suggested
 acknowledgments of the ABINIT effort.
 For more information, see https://www.abinit.org .

.Starting date : Tue 10 Nov 2020.
- ( at 22h25 )
  
- input  file    -> /home/buildbot/ABINIT/alps_gnu_9.3_openmpi/trunk_rel2dev/tests/TestBot_MPI1/v2_t66/t66.in
- output file    -> t66.out
- root for input  files -> t66i
- root for output files -> t66o


 testkgrid : will perform the analysis of a series of k-grids.
  Note that kptopt=1 in this analysis, irrespective of its input value.

 Grid#    kptrlatt         shiftk         kptrlen       nkpt  iset

    1     1   0   0      5.0000E-01      5.0000E+00       1     1
          0   1   0      5.0000E-01
          0   0   1      0.0000E+00

    2     2   0   0      5.0000E-01      6.0000E+00       1     1
          0   1   0      5.0000E-01
          0   0   1      0.0000E+00

    3     2   0   0      5.0000E-01      1.0000E+01       2     1
          0   2   0      5.0000E-01
          0   0   1      0.0000E+00

    4     3   0   0      5.0000E-01      1.2000E+01       3     1
          0   2   0      5.0000E-01
          0   0   1      0.0000E+00

    5     3   0   0      5.0000E-01      1.5000E+01       5     1
          0   3   0      5.0000E-01
          0   0   1      0.0000E+00

    6     4   0   0      5.0000E-01      1.8000E+01       6     1
          0   3   0      5.0000E-01
          0   0   1      0.0000E+00

    7     4   0   0      5.0000E-01      2.0000E+01       8     1
          0   4   0      5.0000E-01
          0   0   1      0.0000E+00

    8     5   0   0      5.0000E-01      2.4000E+01      10     1
          0   4   0      5.0000E-01
          0   0   1      0.0000E+00

    9     5   0   0      5.0000E-01      2.5000E+01      13     1
          0   5   0      5.0000E-01
          0   0   1      0.0000E+00

   10     6   0   0      5.0000E-01      3.0000E+01      15     1
          0   5   0      5.0000E-01
          0   0   1      0.0000E+00

   11     7   0   0      5.0000E-01      3.5000E+01      21     1
          0   6   0      5.0000E-01
          0   0   1      0.0000E+00

   12     8   0   0      5.0000E-01      3.6000E+01      24     1
          0   6   0      5.0000E-01
          0   0   1      0.0000E+00

   13     8   0   0      5.0000E-01      4.0000E+01      28     1
          0   7   0      5.0000E-01
          0   0   1      0.0000E+00

   14     9   0   0      5.0000E-01      4.2000E+01      32     1
          0   7   0      5.0000E-01
          0   0   1      0.0000E+00

   15     9   0   0      5.0000E-01      4.5000E+01      36     1
          0   8   0      5.0000E-01
          0   0   1      0.0000E+00

   16    10   0   0      5.0000E-01      4.8000E+01      40     1
          0   8   0      5.0000E-01
          0   0   1      0.0000E+00

   17    10   0   0      5.0000E-01      5.0000E+01      45     1
          0   9   0      5.0000E-01
          0   0   1      0.0000E+00

   18    11   0   0      5.0000E-01      5.4000E+01      50     1
          0   9   0      5.0000E-01
          0   0   1      0.0000E+00

   19    11   0   0      5.0000E-01      5.5000E+01      55     1
          0  10   0      5.0000E-01
          0   0   1      0.0000E+00

   20    12   0   0      5.0000E-01      6.0000E+01      60     1
          0  10   0      5.0000E-01
          0   0   1      0.0000E+00

   21    13   0   0      5.0000E-01      6.5000E+01      72     1
          0  11   0      5.0000E-01
          0   0   1      0.0000E+00

   22    14   0   0      5.0000E-01      6.6000E+01      77     1
          0  11   0      5.0000E-01
          0   0   1      0.0000E+00

   23    14   0   0      5.0000E-01      7.0000E+01      84     1
          0  12   0      5.0000E-01
          0   0   1      0.0000E+00

   24    15   0   0      5.0000E-01      7.2000E+01      90     1
          0  12   0      5.0000E-01
          0   0   1      0.0000E+00

   25    15   0   0      5.0000E-01      7.5000E+01      98     1
          0  13   0      5.0000E-01
          0   0   1      0.0000E+00

   26    16   0   0      5.0000E-01      7.8000E+01     104     1
          0  13   0      5.0000E-01
          0   0   1      0.0000E+00

   27    16   0   0      5.0000E-01      8.0000E+01     112     1
          0  14   0      5.0000E-01
          0   0   1      0.0000E+00

   28    17   0   0      5.0000E-01      8.4000E+01     119     1
          0  14   0      5.0000E-01
          0   0   1      0.0000E+00

   29     2   0   0      5.0000E-01      1.0000E+01       2     2
          0   2   0      5.0000E-01
          0   0   1      0.0000E+00

   30     4   0   0      5.0000E-01      1.2000E+01       4     2
          0   2   0      5.0000E-01
          0   0   1      0.0000E+00

   31     4   0   0      5.0000E-01      2.0000E+01       8     2
          0   4   0      5.0000E-01
          0   0   1      0.0000E+00

   32     6   0   0      5.0000E-01      2.4000E+01      12     2
          0   4   0      5.0000E-01
          0   0   1      0.0000E+00

   33     6   0   0      5.0000E-01      3.0000E+01      18     2
          0   6   0      5.0000E-01
          0   0   1      0.0000E+00

   34     8   0   0      5.0000E-01      3.6000E+01      24     2
          0   6   0      5.0000E-01
          0   0   1      0.0000E+00

   35     8   0   0      5.0000E-01      4.0000E+01      32     2
          0   8   0      5.0000E-01
          0   0   1      0.0000E+00

   36    10   0   0      5.0000E-01      4.8000E+01      40     2
          0   8   0      5.0000E-01
          0   0   1      0.0000E+00

   37    10   0   0      5.0000E-01      5.0000E+01      50     2
          0  10   0      5.0000E-01
          0   0   1      0.0000E+00

   38    12   0   0      5.0000E-01      6.0000E+01      60     2
          0  10   0      5.0000E-01
          0   0   1      0.0000E+00

   39    14   0   0      5.0000E-01      7.0000E+01      84     2
          0  12   0      5.0000E-01
          0   0   1      0.0000E+00

   40    16   0   0      5.0000E-01      7.2000E+01      96     2
          0  12   0      5.0000E-01
          0   0   1      0.0000E+00

   41    16   0   0      5.0000E-01      8.0000E+01     112     2
          0  14   0      5.0000E-01
          0   0   1      0.0000E+00

   42    18   0   0      5.0000E-01      8.4000E+01     126     2
          0  14   0      5.0000E-01
          0   0   1      0.0000E+00

   43     1  -1   0      5.0000E-01      6.3623E+00       2     3
          1   1   0      5.0000E-01
          0   0   1      0.0000E+00

   44     2  -1   0      5.0000E-01      9.7446E+00       3     3
          2   1   0      5.0000E-01
          0   0   1      0.0000E+00

   45     2  -2   0      5.0000E-01      1.2725E+01       4     3
          2   2   0      5.0000E-01
          0   0   1      0.0000E+00

   46     3  -2   0      5.0000E-01      1.5680E+01       7     3
          3   2   0      5.0000E-01
          0   0   1      0.0000E+00

   47     3  -3   0      5.0000E-01      1.9087E+01      10     3
          3   3   0      5.0000E-01
          0   0   1      0.0000E+00

   48     4  -3   0      5.0000E-01      2.1857E+01      13     3
          4   3   0      5.0000E-01
          0   0   1      0.0000E+00

   49     4  -4   0      5.0000E-01      2.5449E+01      16     3
          4   4   0      5.0000E-01
          0   0   1      0.0000E+00

   50     5  -4   0      5.0000E-01      2.8117E+01      21     3
          5   4   0      5.0000E-01
          0   0   1      0.0000E+00

   51     5  -5   0      5.0000E-01      3.1811E+01      26     3
          5   5   0      5.0000E-01
          0   0   1      0.0000E+00

   52     6  -5   0      5.0000E-01      3.4415E+01      31     3
          6   5   0      5.0000E-01
          0   0   1      0.0000E+00

   53     7  -6   0      5.0000E-01      4.0732E+01      43     3
          7   6   0      5.0000E-01
          0   0   1      0.0000E+00

   54     8  -6   0      5.0000E-01      4.3715E+01      48     3
          8   6   0      5.0000E-01
          0   0   1      0.0000E+00

   55     8  -7   0      5.0000E-01      4.7062E+01      57     3
          8   7   0      5.0000E-01
          0   0   1      0.0000E+00

   56     9  -7   0      5.0000E-01      4.9962E+01      64     3
          9   7   0      5.0000E-01
          0   0   1      0.0000E+00

   57     9  -8   0      5.0000E-01      5.3399E+01      73     3
          9   8   0      5.0000E-01
          0   0   1      0.0000E+00

   58    10  -8   0      5.0000E-01      5.6234E+01      80     3
         10   8   0      5.0000E-01
          0   0   1      0.0000E+00

   59    10  -9   0      5.0000E-01      5.9742E+01      91     3
         10   9   0      5.0000E-01
          0   0   1      0.0000E+00

   60    11  -9   0      5.0000E-01      6.2525E+01     100     3
         11   9   0      5.0000E-01
          0   0   1      0.0000E+00

   61    11 -10   0      5.0000E-01      6.6088E+01     111     3
         11  10   0      5.0000E-01
          0   0   1      0.0000E+00

   62    12 -10   0      5.0000E-01      6.8829E+01     120     3
         12  10   0      5.0000E-01
          0   0   1      0.0000E+00

   63    13 -11   0      5.0000E-01      7.5143E+01     144     3
         13  11   0      5.0000E-01
          0   0   1      0.0000E+00

   64    14 -11   0      5.0000E-01      7.8075E+01     155     3
         14  11   0      5.0000E-01
          0   0   1      0.0000E+00

   65    14 -12   0      5.0000E-01      8.1464E+01     168     3
         14  12   0      5.0000E-01
          0   0   1      0.0000E+00

   66     2  -2   0      5.0000E-01      1.2725E+01       4     4
          2   2   0      5.0000E-01
          0   0   1      0.0000E+00

   67     4  -2   0      5.0000E-01      1.9489E+01       8     4
          4   2   0      5.0000E-01
          0   0   1      0.0000E+00

   68     4  -4   0      5.0000E-01      2.5449E+01      16     4
          4   4   0      5.0000E-01
          0   0   1      0.0000E+00

   69     6  -4   0      5.0000E-01      3.1361E+01      24     4
          6   4   0      5.0000E-01
          0   0   1      0.0000E+00

   70     6  -6   0      5.0000E-01      3.8174E+01      36     4
          6   6   0      5.0000E-01
          0   0   1      0.0000E+00

   71     8  -6   0      5.0000E-01      4.3715E+01      48     4
          8   6   0      5.0000E-01
          0   0   1      0.0000E+00

   72     8  -8   0      5.0000E-01      5.0898E+01      64     4
          8   8   0      5.0000E-01
          0   0   1      0.0000E+00

   73    10  -8   0      5.0000E-01      5.6234E+01      80     4
         10   8   0      5.0000E-01
          0   0   1      0.0000E+00

   74    10 -10   0      5.0000E-01      6.3623E+01     100     4
         10  10   0      5.0000E-01
          0   0   1      0.0000E+00

   75    12 -10   0      5.0000E-01      6.8829E+01     120     4
         12  10   0      5.0000E-01
          0   0   1      0.0000E+00

   76    14 -12   0      5.0000E-01      8.1464E+01     168     4
         14  12   0      5.0000E-01
          0   0   1      0.0000E+00


 Note that the system is bi-dimensional.

 List of best grids, ordered by nkpt.
  (stop at a value of kptrlen 20% larger than the target value).
  (the merit factor will tend to one or two in 3 dimensions)
  (and to one, two or four in 2 dimensions)

    nkpt   kptrlen    grid#  merit_factor
     1    6.0000E+00     2      0.5530
     2    1.0000E+01     3      0.7680
     3    1.2000E+01     4      0.7373
     4    1.2725E+01    45      0.6218
     5    1.5000E+01     5      0.6912
     6    1.8000E+01     6      0.8294
     8    2.0000E+01     7      0.7680
    10    2.4000E+01     8      0.8847
    13    2.5000E+01     9      0.7385
    15    3.0000E+01    10      0.9216
    21    3.5000E+01    11      0.8960
    24    3.6000E+01    12      0.8294
    28    4.0000E+01    13      0.8777
    32    4.2000E+01    14      0.8467
    36    4.5000E+01    15      0.8640
    40    4.8000E+01    16      0.8847

 For target kptrlen=    4.0000E+01, the selected grid is number    14,
     giving kptrlen=    4.2000E+01 with nkpt=    32

 testkgrid : stop after analysis of a series of k-grids.
  For usual production runs, set prtkpt back to 0 (the default).
