
.Version 10.1.4.5 of ABINIT, released Sep 2024.
.(MPI version, prepared for a x86_64_linux_gnu13.2 computer) 

.Copyright (C) 1998-2025 ABINIT group . 
 ABINIT comes with ABSOLUTELY NO WARRANTY.
 It is free software, and you are welcome to redistribute it
 under certain conditions (GNU General Public License,
 see ~abinit/COPYING or http://www.gnu.org/copyleft/gpl.txt).

 ABINIT is a project of the Universite Catholique de Louvain,
 Corning Inc. and other collaborators, see ~abinit/doc/developers/contributors.txt .
 Please read https://docs.abinit.org/theory/acknowledgments for suggested
 acknowledgments of the ABINIT effort.
 For more information, see https://www.abinit.org .

.Starting date : Fri 13 Sep 2024.
- ( at 19h05 )
  
- input  file    -> /home/buildbot/ABINIT3/eos_gnu_13.2_mpich/trunk_merge-10.0/tests/TestBot_MPI1/tutorial_tbase2_4/tbase2_4.abi
- output file    -> tbase2_4.abo
- root for input  files -> tbase2_4i
- root for output files -> tbase2_4o

 DATASET   11 : space group P4/m m m (#123); Bravais tP (primitive tetrag.)
================================================================================
 Values of the parameters that define the memory need for DATASET 11.
     intxc =       0    ionmov =       2      iscf =       7    lmnmax =       3
     lnmax =       3     mgfft =      75  mpssoang =       2    mqgrid =    3602
     natom =       2  nloc_mem =       1    nspden =       1   nspinor =       1
    nsppol =       1      nsym =      16    n1xccc =       0    ntypat =       1
    occopt =       1   xclevel =       1
-    mband =           1        mffmem =           1         mkmem =           1
       mpw =       12203          nfft =      421875          nkpt =           1
================================================================================
P This job should need less than                     128.289 Mbytes of memory.
  Rough estimation (10% accuracy) of disk space for files :
_ WF disk file :      0.188 Mbytes ; DEN or POT disk file :      3.221 Mbytes.
================================================================================

 DATASET   12 : space group Pm -3 m (#221); Bravais cP (primitive cubic)
================================================================================
 Values of the parameters that define the memory need for DATASET 12.
     intxc =       0    ionmov =       0      iscf =       7    lmnmax =       3
     lnmax =       3     mgfft =      75  mpssoang =       2    mqgrid =    3602
     natom =       1  nloc_mem =       1    nspden =       2   nspinor =       1
    nsppol =       2      nsym =      48    n1xccc =       0    ntypat =       1
    occopt =       2   xclevel =       1
-    mband =           1        mffmem =           1         mkmem =           1
       mpw =       12203          nfft =      421875          nkpt =           1
================================================================================
P This job should need less than                     192.649 Mbytes of memory.
  Rough estimation (10% accuracy) of disk space for files :
_ WF disk file :      0.374 Mbytes ; DEN or POT disk file :      6.439 Mbytes.
================================================================================

--------------------------------------------------------------------------------
------------- Echo of variables that govern the present computation ------------
--------------------------------------------------------------------------------
-
- outvars: echo of selected default values
-   iomode0 =  0 , fftalg0 =512 , wfoptalg0 =  0
-
- outvars: echo of global parameters not present in the input file
-  max_nthreads =    0
-
 -outvars: echo values of preprocessed input variables --------
            acell      1.6000000000E+01  1.6000000000E+01  1.6000000000E+01 Bohr
              amu      1.00794000E+00
        bs_loband11         0
        bs_loband12         0       0
           diemac      1.00000000E+00
             ecut      2.50000000E+01 Hartree
-          fftalg         512
           ionmov11         2
           ionmov12         0
           istwfk        2
              ixc       -1012
           jdtset       11   12
           kptopt           0
P           mkmem           1
            natom11         2
            natom12         1
            nband11         1
            nband12         1       1
           ndtset           2
            ngfft          75      75      75
             nkpt           1
           nspden11         1
           nspden12         2
           nsppol11         1
           nsppol12         2
            nstep          10
             nsym11        16
             nsym12        48
            ntime11        10
            ntime12         1
           ntypat           1
              occ11    2.000000
              occ12    1.000000
                       0.000000
           occopt11         1
           occopt12         2
        optforces11         1
        optforces12         2
          spgroup11       123
          spgroup12       221
           spinat12    0.0000000000E+00  0.0000000000E+00  1.0000000000E+00
           symafm11      1    1    1    1    1    1    1    1    1    1
                         1    1    1    1    1    1
           symafm12      1    1    1    1    1    1    1    1    1    1
                         1    1    1    1    1    1    1    1    1    1
                         1    1    1    1    1    1    1    1    1    1
                         1    1    1    1    1    1    1    1    1    1
                         1    1    1    1    1    1    1    1
           symrel11    1  0  0   0  1  0   0  0  1      -1  0  0   0 -1  0   0  0 -1
                      -1  0  0   0  1  0   0  0 -1       1  0  0   0 -1  0   0  0  1
                      -1  0  0   0 -1  0   0  0  1       1  0  0   0  1  0   0  0 -1
                       1  0  0   0 -1  0   0  0 -1      -1  0  0   0  1  0   0  0  1
                       1  0  0   0  0  1   0  1  0      -1  0  0   0  0 -1   0 -1  0
                      -1  0  0   0  0  1   0 -1  0       1  0  0   0  0 -1   0  1  0
                      -1  0  0   0  0 -1   0  1  0       1  0  0   0  0  1   0 -1  0
                       1  0  0   0  0 -1   0 -1  0      -1  0  0   0  0  1   0  1  0
           symrel12    1  0  0   0  1  0   0  0  1      -1  0  0   0 -1  0   0  0 -1
                      -1  0  0   0  1  0   0  0 -1       1  0  0   0 -1  0   0  0  1
                      -1  0  0   0 -1  0   0  0  1       1  0  0   0  1  0   0  0 -1
                       1  0  0   0 -1  0   0  0 -1      -1  0  0   0  1  0   0  0  1
                       0  1  0   1  0  0   0  0  1       0 -1  0  -1  0  0   0  0 -1
                       0 -1  0   1  0  0   0  0 -1       0  1  0  -1  0  0   0  0  1
                       0 -1  0  -1  0  0   0  0  1       0  1  0   1  0  0   0  0 -1
                       0  1  0  -1  0  0   0  0 -1       0 -1  0   1  0  0   0  0  1
                       0  0  1   1  0  0   0  1  0       0  0 -1  -1  0  0   0 -1  0
                       0  0 -1   1  0  0   0 -1  0       0  0  1  -1  0  0   0  1  0
                       0  0 -1  -1  0  0   0  1  0       0  0  1   1  0  0   0 -1  0
                       0  0  1  -1  0  0   0 -1  0       0  0 -1   1  0  0   0  1  0
                       1  0  0   0  0  1   0  1  0      -1  0  0   0  0 -1   0 -1  0
                      -1  0  0   0  0  1   0 -1  0       1  0  0   0  0 -1   0  1  0
                      -1  0  0   0  0 -1   0  1  0       1  0  0   0  0  1   0 -1  0
                       1  0  0   0  0 -1   0 -1  0      -1  0  0   0  0  1   0  1  0
                       0  1  0   0  0  1   1  0  0       0 -1  0   0  0 -1  -1  0  0
                       0 -1  0   0  0  1  -1  0  0       0  1  0   0  0 -1   1  0  0
                       0 -1  0   0  0 -1   1  0  0       0  1  0   0  0  1  -1  0  0
                       0  1  0   0  0 -1  -1  0  0       0 -1  0   0  0  1   1  0  0
                       0  0  1   0  1  0   1  0  0       0  0 -1   0 -1  0  -1  0  0
                       0  0 -1   0  1  0  -1  0  0       0  0  1   0 -1  0   1  0  0
                       0  0 -1   0 -1  0   1  0  0       0  0  1   0  1  0  -1  0  0
                       0  0  1   0 -1  0  -1  0  0       0  0 -1   0  1  0   1  0  0
            tnons11    0.0000000  0.0000000  0.0000000     0.0000000  0.0000000  0.0000000
                       0.0000000  0.0000000  0.0000000     0.0000000  0.0000000  0.0000000
                       0.0000000  0.0000000  0.0000000     0.0000000  0.0000000  0.0000000
                       0.0000000  0.0000000  0.0000000     0.0000000  0.0000000  0.0000000
                       0.0000000  0.0000000  0.0000000     0.0000000  0.0000000  0.0000000
                       0.0000000  0.0000000  0.0000000     0.0000000  0.0000000  0.0000000
                       0.0000000  0.0000000  0.0000000     0.0000000  0.0000000  0.0000000
                       0.0000000  0.0000000  0.0000000     0.0000000  0.0000000  0.0000000
            tnons12    0.0000000  0.0000000  0.0000000     0.0000000  0.0000000  0.0000000
                       0.0000000  0.0000000  0.0000000     0.0000000  0.0000000  0.0000000
                       0.0000000  0.0000000  0.0000000     0.0000000  0.0000000  0.0000000
                       0.0000000  0.0000000  0.0000000     0.0000000  0.0000000  0.0000000
                       0.0000000  0.0000000  0.0000000     0.0000000  0.0000000  0.0000000
                       0.0000000  0.0000000  0.0000000     0.0000000  0.0000000  0.0000000
                       0.0000000  0.0000000  0.0000000     0.0000000  0.0000000  0.0000000
                       0.0000000  0.0000000  0.0000000     0.0000000  0.0000000  0.0000000
                       0.0000000  0.0000000  0.0000000     0.0000000  0.0000000  0.0000000
                       0.0000000  0.0000000  0.0000000     0.0000000  0.0000000  0.0000000
                       0.0000000  0.0000000  0.0000000     0.0000000  0.0000000  0.0000000
                       0.0000000  0.0000000  0.0000000     0.0000000  0.0000000  0.0000000
                       0.0000000  0.0000000  0.0000000     0.0000000  0.0000000  0.0000000
                       0.0000000  0.0000000  0.0000000     0.0000000  0.0000000  0.0000000
                       0.0000000  0.0000000  0.0000000     0.0000000  0.0000000  0.0000000
                       0.0000000  0.0000000  0.0000000     0.0000000  0.0000000  0.0000000
                       0.0000000  0.0000000  0.0000000     0.0000000  0.0000000  0.0000000
                       0.0000000  0.0000000  0.0000000     0.0000000  0.0000000  0.0000000
                       0.0000000  0.0000000  0.0000000     0.0000000  0.0000000  0.0000000
                       0.0000000  0.0000000  0.0000000     0.0000000  0.0000000  0.0000000
                       0.0000000  0.0000000  0.0000000     0.0000000  0.0000000  0.0000000
                       0.0000000  0.0000000  0.0000000     0.0000000  0.0000000  0.0000000
                       0.0000000  0.0000000  0.0000000     0.0000000  0.0000000  0.0000000
                       0.0000000  0.0000000  0.0000000     0.0000000  0.0000000  0.0000000
           toldfe11    0.00000000E+00 Hartree
           toldfe12    1.00000000E-06 Hartree
           toldff11    5.00000000E-05
           toldff12    0.00000000E+00
           tolmxf11    5.00000000E-04
           tolmxf12    5.00000000E-05
            typat11    1  1
            typat12    1
           xangst11   -3.7042404601E-01  0.0000000000E+00  0.0000000000E+00
                       3.7042404601E-01  0.0000000000E+00  0.0000000000E+00
           xangst12    0.0000000000E+00  0.0000000000E+00  0.0000000000E+00
            xcart11   -7.0000000000E-01  0.0000000000E+00  0.0000000000E+00
                       7.0000000000E-01  0.0000000000E+00  0.0000000000E+00
            xcart12    0.0000000000E+00  0.0000000000E+00  0.0000000000E+00
             xred11   -4.3750000000E-02  0.0000000000E+00  0.0000000000E+00
                       4.3750000000E-02  0.0000000000E+00  0.0000000000E+00
             xred12    0.0000000000E+00  0.0000000000E+00  0.0000000000E+00
            znucl        1.00000

================================================================================

 chkinp: Checking input parameters for consistency, jdtset=  11.

 chkinp: Checking input parameters for consistency, jdtset=  12.

================================================================================
== DATASET 11 ==================================================================
-   mpi_nproc: 1, omp_nthreads: -1 (-1 if OMP is not activated)


--- !DatasetInfo
iteration_state: {dtset: 11, }
dimensions: {natom: 2, nkpt: 1, mband: 1, nsppol: 1, nspinor: 1, nspden: 1, mpw: 12203, }
cutoff_energies: {ecut:  25.0, pawecutdg:  -1.0, }
electrons: {nelect:   2.00000000E+00, charge:   0.00000000E+00, occopt:   1.00000000E+00, tsmear:   1.00000000E-02, }
meta: {optdriver: 0, ionmov: 2, optcell: 0, iscf: 7, paral_kgb: 0, }
...

 Real(R)+Recip(G) space primitive vectors, cartesian coordinates (Bohr,Bohr^-1):
 R(1)= 16.0000000  0.0000000  0.0000000  G(1)=  0.0625000  0.0000000  0.0000000
 R(2)=  0.0000000 16.0000000  0.0000000  G(2)=  0.0000000  0.0625000  0.0000000
 R(3)=  0.0000000  0.0000000 16.0000000  G(3)=  0.0000000  0.0000000  0.0625000
 Unit cell volume ucvol=  4.0960000E+03 bohr^3
 Angles (23,13,12)=  9.00000000E+01  9.00000000E+01  9.00000000E+01 degrees

 getcut: wavevector=  0.0000  0.0000  0.0000  ngfft=  75  75  75
         ecut(hartree)=     25.000   => boxcut(ratio)=   2.05483

--- Pseudopotential description ------------------------------------------------
- pspini: atom type   1  psp file is /home/buildbot/ABINIT3/eos_gnu_13.2_mpich/trunk_merge-10.0/tests/Pspdir/Psdj_nc_sr_04_pw_std_psp8/H.psp8
- pspatm: opening atomic psp file    /home/buildbot/ABINIT3/eos_gnu_13.2_mpich/trunk_merge-10.0/tests/Pspdir/Psdj_nc_sr_04_pw_std_psp8/H.psp8
- H     ONCVPSP-3.3.0  r_core=   1.00957   0.90680
-  1.00000   1.00000    171101                znucl, zion, pspdat
    8   -1012    1    4       300   0.00000   pspcod,pspxc,lmax,lloc,mmax,r2well
    2.99000000000000    0.00000000000000    0.00000000000000   rchrg,fchrg,qchrg
     nproj     2     1
     extension_switch     1
  pspatm : epsatm=    0.35491505
         --- l  ekb(1:nproj) -->
             0   -1.665338   -0.519510
             1   -0.275071
 pspatm: atomic psp has been read  and splines computed

   1.41966018E+00                                ecore*ucvol(ha*bohr**3)
--------------------------------------------------------------------------------

_setup2: Arith. and geom. avg. npw (full set) are   24405.000   24405.000

================================================================================

=== [ionmov= 2] Broyden-Fletcher-Goldfarb-Shanno method (forces)            
================================================================================

--- Iteration: ( 1/10) Internal Cycle: (1/1)
--------------------------------------------------------------------------------

---SELF-CONSISTENT-FIELD CONVERGENCE--------------------------------------------

--- !BeginCycle
iteration_state: {dtset: 11, itime: 1, icycle: 1, }
solver: {iscf: 7, nstep: 10, nline: 4, wfoptalg: 0, }
tolerances: {toldff: 5.00E-05, }
...

     iter   Etot(hartree)      deltaE(h)  residm     vres2    diffor    maxfor
 ETOT  1  -1.1279313886576    -1.128E+00 3.983E-05 1.389E+02 1.065E-02 1.065E-02
 ETOT  2  -1.1355445228888    -7.613E-03 3.637E-09 1.528E+01 3.754E-02 2.688E-02
 ETOT  3  -1.1366018139351    -1.057E-03 9.172E-07 1.364E-02 1.054E-02 1.635E-02
 ETOT  4  -1.1366025272647    -7.133E-07 4.408E-09 1.801E-03 3.319E-04 1.668E-02
 ETOT  5  -1.1366025453954    -1.813E-08 8.859E-12 9.058E-05 3.108E-05 1.665E-02
 ETOT  6  -1.1366025458023    -4.069E-10 3.217E-13 4.536E-07 6.477E-06 1.664E-02

 At SCF step    6, forces are converged : 
  for the second time, max diff in force=  6.477E-06 < toldff=  5.000E-05

 Cartesian components of stress tensor (hartree/bohr^3)
  sigma(1 1)= -5.04037536E-06  sigma(3 2)=  0.00000000E+00
  sigma(2 2)=  8.08977900E-07  sigma(3 1)=  0.00000000E+00
  sigma(3 3)=  8.08977900E-07  sigma(2 1)=  0.00000000E+00


--- !ResultsGS
iteration_state: {dtset: 11, itime: 1, icycle: 1, }
comment   : Summary of ground state results
lattice_vectors:
- [ 16.0000000,   0.0000000,   0.0000000, ]
- [  0.0000000,  16.0000000,   0.0000000, ]
- [  0.0000000,   0.0000000,  16.0000000, ]
lattice_lengths: [  16.00000,   16.00000,   16.00000, ]
lattice_angles: [ 90.000,  90.000,  90.000, ] # degrees, (23, 13, 12)
lattice_volume:   4.0960000E+03
convergence: {deltae: -4.069E-10, res2:  4.536E-07, residm:  3.217E-13, diffor:  6.477E-06, }
etotal    :  -1.13660255E+00
entropy   :   0.00000000E+00
fermie    :  -3.75312171E-01
cartesian_stress_tensor: # hartree/bohr^3
- [ -5.04037536E-06,   0.00000000E+00,   0.00000000E+00, ]
- [  0.00000000E+00,   8.08977900E-07,   0.00000000E+00, ]
- [  0.00000000E+00,   0.00000000E+00,   8.08977900E-07, ]
pressure_GPa:   3.3564E-02
xred      :
- [ -4.3750E-02,   0.0000E+00,   0.0000E+00,  H]
- [  4.3750E-02,   0.0000E+00,   0.0000E+00,  H]
cartesian_forces: # hartree/bohr
- [ -1.66422144E-02,  -0.00000000E+00,  -0.00000000E+00, ]
- [  1.66422144E-02,  -0.00000000E+00,  -0.00000000E+00, ]
force_length_stats: {min:   1.66422144E-02, max:   1.66422144E-02, mean:   1.66422144E-02, }
...

 Integrated electronic density in atomic spheres:
 ------------------------------------------------
 Atom  Sphere_radius  Integrated_density
    1        2.00000          1.47800448
    2        2.00000          1.47800448

---OUTPUT-----------------------------------------------------------------------

 Cartesian coordinates (xcart) [bohr]
 -7.00000000000000E-01  0.00000000000000E+00  0.00000000000000E+00
  7.00000000000000E-01  0.00000000000000E+00  0.00000000000000E+00
 Reduced coordinates (xred)
 -4.37500000000000E-02  0.00000000000000E+00  0.00000000000000E+00
  4.37500000000000E-02  0.00000000000000E+00  0.00000000000000E+00
 Cartesian forces (fcart) [Ha/bohr]; max,rms= 1.66422E-02 9.60839E-03 (free atoms)
 -1.66422144315653E-02 -0.00000000000000E+00 -0.00000000000000E+00
  1.66422144315653E-02 -0.00000000000000E+00 -0.00000000000000E+00
 Gradient of E wrt nuclear positions in reduced coordinates (gred)
  2.66275430905044E-01  0.00000000000000E+00  0.00000000000000E+00
 -2.66275430905044E-01 -0.00000000000000E+00 -0.00000000000000E+00
 Total energy (etotal) [Ha]= -1.13660254580232E+00

--- Iteration: ( 2/10) Internal Cycle: (1/1)
--------------------------------------------------------------------------------

---SELF-CONSISTENT-FIELD CONVERGENCE--------------------------------------------

--- !BeginCycle
iteration_state: {dtset: 11, itime: 2, icycle: 1, }
solver: {iscf: 7, nstep: 10, nline: 4, wfoptalg: 0, }
tolerances: {toldff: 5.00E-05, }
...

     iter   Etot(hartree)      deltaE(h)  residm     vres2    diffor    maxfor
 ETOT  1  -1.1369464929852    -1.137E+00 1.223E-10 8.367E-02 1.296E-02 3.684E-03
 ETOT  2  -1.1369486132624    -2.120E-06 1.464E-12 3.833E-03 5.319E-04 4.216E-03
 ETOT  3  -1.1369488674957    -2.542E-07 2.484E-09 6.338E-05 1.848E-04 4.401E-03
 ETOT  4  -1.1369488721332    -4.638E-09 3.228E-12 2.618E-06 1.550E-05 4.386E-03
 ETOT  5  -1.1369488721392    -5.919E-12 2.196E-14 4.830E-07 4.836E-07 4.386E-03

 At SCF step    5, forces are converged : 
  for the second time, max diff in force=  4.836E-07 < toldff=  5.000E-05

 Cartesian components of stress tensor (hartree/bohr^3)
  sigma(1 1)= -9.41147979E-07  sigma(3 2)=  0.00000000E+00
  sigma(2 2)=  7.88303135E-07  sigma(3 1)=  0.00000000E+00
  sigma(3 3)=  7.88303135E-07  sigma(2 1)=  0.00000000E+00


--- !ResultsGS
iteration_state: {dtset: 11, itime: 2, icycle: 1, }
comment   : Summary of ground state results
lattice_vectors:
- [ 16.0000000,   0.0000000,   0.0000000, ]
- [  0.0000000,  16.0000000,   0.0000000, ]
- [  0.0000000,   0.0000000,  16.0000000, ]
lattice_lengths: [  16.00000,   16.00000,   16.00000, ]
lattice_angles: [ 90.000,  90.000,  90.000, ] # degrees, (23, 13, 12)
lattice_volume:   4.0960000E+03
convergence: {deltae: -5.919E-12, res2:  4.830E-07, residm:  2.196E-14, diffor:  4.836E-07, }
etotal    :  -1.13694887E+00
entropy   :   0.00000000E+00
fermie    :  -3.72225829E-01
cartesian_stress_tensor: # hartree/bohr^3
- [ -9.41147979E-07,   0.00000000E+00,   0.00000000E+00, ]
- [  0.00000000E+00,   7.88303135E-07,   0.00000000E+00, ]
- [  0.00000000E+00,   0.00000000E+00,   7.88303135E-07, ]
pressure_GPa:  -6.2319E-03
xred      :
- [ -4.4790E-02,   0.0000E+00,   0.0000E+00,  H]
- [  4.4790E-02,   0.0000E+00,   0.0000E+00,  H]
cartesian_forces: # hartree/bohr
- [ -4.38618046E-03,  -0.00000000E+00,  -0.00000000E+00, ]
- [  4.38618046E-03,  -0.00000000E+00,  -0.00000000E+00, ]
force_length_stats: {min:   4.38618046E-03, max:   4.38618046E-03, mean:   4.38618046E-03, }
...

 Integrated electronic density in atomic spheres:
 ------------------------------------------------
 Atom  Sphere_radius  Integrated_density
    1        2.00000          1.46295372
    2        2.00000          1.46295372

---OUTPUT-----------------------------------------------------------------------

 Cartesian coordinates (xcart) [bohr]
 -7.16642214431565E-01  0.00000000000000E+00  0.00000000000000E+00
  7.16642214431565E-01  0.00000000000000E+00  0.00000000000000E+00
 Reduced coordinates (xred)
 -4.47901384019728E-02  0.00000000000000E+00  0.00000000000000E+00
  4.47901384019728E-02  0.00000000000000E+00  0.00000000000000E+00
 Cartesian forces (fcart) [Ha/bohr]; max,rms= 4.38618E-03 2.53236E-03 (free atoms)
 -4.38618045879041E-03 -0.00000000000000E+00 -0.00000000000000E+00
  4.38618045879041E-03 -0.00000000000000E+00 -0.00000000000000E+00
 Gradient of E wrt nuclear positions in reduced coordinates (gred)
  7.01788873406465E-02  0.00000000000000E+00  0.00000000000000E+00
 -7.01788873406465E-02 -0.00000000000000E+00 -0.00000000000000E+00
 Total energy (etotal) [Ha]= -1.13694887213917E+00

 Difference of energy with previous step (new-old):
           Absolute (Ha)=-3.46326E-04
           Relative     =-3.04657E-04

--- Iteration: ( 3/10) Internal Cycle: (1/1)
--------------------------------------------------------------------------------

---SELF-CONSISTENT-FIELD CONVERGENCE--------------------------------------------

--- !BeginCycle
iteration_state: {dtset: 11, itime: 3, icycle: 1, }
solver: {iscf: 7, nstep: 10, nline: 4, wfoptalg: 0, }
tolerances: {toldff: 5.00E-05, }
...

     iter   Etot(hartree)      deltaE(h)  residm     vres2    diffor    maxfor
 ETOT  1  -1.1369763910470    -1.137E+00 1.393E-11 1.061E-02 4.323E-03 6.363E-05
 ETOT  2  -1.1369766553017    -2.643E-07 1.810E-13 4.765E-04 1.867E-04 2.503E-04
 ETOT  3  -1.1369766868582    -3.156E-08 3.091E-10 8.142E-06 6.487E-05 3.152E-04
 ETOT  4  -1.1369766874507    -5.925E-10 4.112E-13 3.232E-07 5.537E-06 3.096E-04
 ETOT  5  -1.1369766874515    -8.205E-13 2.609E-15 5.988E-08 1.663E-07 3.098E-04

 At SCF step    5, forces are converged : 
  for the second time, max diff in force=  1.663E-07 < toldff=  5.000E-05

 Cartesian components of stress tensor (hartree/bohr^3)
  sigma(1 1)=  4.67645526E-07  sigma(3 2)=  0.00000000E+00
  sigma(2 2)=  7.81156659E-07  sigma(3 1)=  0.00000000E+00
  sigma(3 3)=  7.81156659E-07  sigma(2 1)=  0.00000000E+00


--- !ResultsGS
iteration_state: {dtset: 11, itime: 3, icycle: 1, }
comment   : Summary of ground state results
lattice_vectors:
- [ 16.0000000,   0.0000000,   0.0000000, ]
- [  0.0000000,  16.0000000,   0.0000000, ]
- [  0.0000000,   0.0000000,  16.0000000, ]
lattice_lengths: [  16.00000,   16.00000,   16.00000, ]
lattice_angles: [ 90.000,  90.000,  90.000, ] # degrees, (23, 13, 12)
lattice_volume:   4.0960000E+03
convergence: {deltae: -8.205E-13, res2:  5.988E-08, residm:  2.609E-15, diffor:  1.663E-07, }
etotal    :  -1.13697669E+00
entropy   :   0.00000000E+00
fermie    :  -3.71140276E-01
cartesian_stress_tensor: # hartree/bohr^3
- [  4.67645526E-07,   0.00000000E+00,   0.00000000E+00, ]
- [  0.00000000E+00,   7.81156659E-07,   0.00000000E+00, ]
- [  0.00000000E+00,   0.00000000E+00,   7.81156659E-07, ]
pressure_GPa:  -1.9908E-02
xred      :
- [ -4.5162E-02,   0.0000E+00,   0.0000E+00,  H]
- [  4.5162E-02,   0.0000E+00,   0.0000E+00,  H]
cartesian_forces: # hartree/bohr
- [ -3.09804682E-04,  -0.00000000E+00,  -0.00000000E+00, ]
- [  3.09804682E-04,  -0.00000000E+00,  -0.00000000E+00, ]
force_length_stats: {min:   3.09804682E-04, max:   3.09804682E-04, mean:   3.09804682E-04, }
...

 Integrated electronic density in atomic spheres:
 ------------------------------------------------
 Atom  Sphere_radius  Integrated_density
    1        2.00000          1.45646305
    2        2.00000          1.45646305

---OUTPUT-----------------------------------------------------------------------

 Cartesian coordinates (xcart) [bohr]
 -7.22598117939411E-01  0.00000000000000E+00  0.00000000000000E+00
  7.22598117939411E-01  0.00000000000000E+00  0.00000000000000E+00
 Reduced coordinates (xred)
 -4.51623823712132E-02  0.00000000000000E+00  0.00000000000000E+00
  4.51623823712132E-02  0.00000000000000E+00  0.00000000000000E+00
 Cartesian forces (fcart) [Ha/bohr]; max,rms= 3.09805E-04 1.78866E-04 (free atoms)
 -3.09804681571842E-04 -0.00000000000000E+00 -0.00000000000000E+00
  3.09804681571842E-04 -0.00000000000000E+00 -0.00000000000000E+00
 Gradient of E wrt nuclear positions in reduced coordinates (gred)
  4.95687490514948E-03  0.00000000000000E+00  0.00000000000000E+00
 -4.95687490514948E-03 -0.00000000000000E+00 -0.00000000000000E+00
 Total energy (etotal) [Ha]= -1.13697668745154E+00

 Difference of energy with previous step (new-old):
           Absolute (Ha)=-2.78153E-05
           Relative     =-2.44646E-05

 At Broyd/MD step   3, gradients are converged : 
  max grad (force/stress) = 3.0980E-04 < tolmxf= 5.0000E-04 ha/bohr (free atoms)

================================================================================

 ----iterations are completed or convergence reached----

 Mean square residual over all n,k,spin=   26.094E-16; max=  26.094E-16
 reduced coordinates (array xred) for    2 atoms
      -0.045162382371      0.000000000000      0.000000000000
       0.045162382371      0.000000000000      0.000000000000
 rms dE/dt=  2.8619E-03; max dE/dt=  4.9569E-03; dE/dt below (all hartree)
    1       0.004956874905      0.000000000000      0.000000000000
    2      -0.004956874905      0.000000000000      0.000000000000

 cartesian coordinates (angstrom) at end:
    1     -0.38238245498357     0.00000000000000     0.00000000000000
    2      0.38238245498357     0.00000000000000     0.00000000000000

 cartesian forces (hartree/bohr) at end:
    1     -0.00030980468157    -0.00000000000000    -0.00000000000000
    2      0.00030980468157    -0.00000000000000    -0.00000000000000
 frms,max,avg= 1.7886582E-04 3.0980468E-04   0.000E+00  0.000E+00  0.000E+00 h/b

 cartesian forces (eV/Angstrom) at end:
    1     -0.01593079591303    -0.00000000000000    -0.00000000000000
    2      0.01593079591303    -0.00000000000000    -0.00000000000000
 frms,max,avg= 9.1976493E-03 1.5930796E-02   0.000E+00  0.000E+00  0.000E+00 e/A
 length scales= 16.000000000000 16.000000000000 16.000000000000 bohr
              =  8.466835337440  8.466835337440  8.466835337440 angstroms
 prteigrs : about to open file tbase2_4o_DS11_EIG
 Fermi (or HOMO) energy (hartree) =  -0.37114   Average Vxc (hartree)=  -0.02171
 Eigenvalues (hartree) for nkpt=   1  k points:
 kpt#   1, nband=  1, wtk=  1.00000, kpt=  0.0000  0.0000  0.0000 (reduced coord)
  -0.37114

--- !EnergyTerms
iteration_state     : {dtset: 11, itime: 3, icycle: 1, }
comment             : Components of total free energy in Hartree
kinetic             :  1.05944317580717E+00
hartree             :  9.30771998116918E-01
xc                  : -6.44847788947150E-01
Ewald energy        :  3.38366273163225E-01
psp_core            :  3.46596724438746E-04
local_psp           : -2.63681111864246E+00
non_local_psp       : -1.84245823673684E-01
total_energy        : -1.13697668745154E+00
total_energy_eV     : -3.09387090821151E+01
band_energy         : -7.42280551339315E-01
...

 rms coord change=  8.1544E-04   atom, delta coord (reduced):
     1       -0.001412382371      0.000000000000      0.000000000000
     2        0.001412382371      0.000000000000      0.000000000000

 Cartesian components of stress tensor (hartree/bohr^3)
  sigma(1 1)=  4.67645526E-07  sigma(3 2)=  0.00000000E+00
  sigma(2 2)=  7.81156659E-07  sigma(3 1)=  0.00000000E+00
  sigma(3 3)=  7.81156659E-07  sigma(2 1)=  0.00000000E+00

-Cartesian components of stress tensor (GPa)         [Pressure= -1.9908E-02 GPa]
- sigma(1 1)=  1.37586041E-02  sigma(3 2)=  0.00000000E+00
- sigma(2 2)=  2.29824185E-02  sigma(3 1)=  0.00000000E+00
- sigma(3 3)=  2.29824185E-02  sigma(2 1)=  0.00000000E+00

================================================================================
== DATASET 12 ==================================================================
-   mpi_nproc: 1, omp_nthreads: -1 (-1 if OMP is not activated)


--- !DatasetInfo
iteration_state: {dtset: 12, }
dimensions: {natom: 1, nkpt: 1, mband: 1, nsppol: 2, nspinor: 1, nspden: 2, mpw: 12203, }
cutoff_energies: {ecut:  25.0, pawecutdg:  -1.0, }
electrons: {nelect:   1.00000000E+00, charge:   0.00000000E+00, occopt:   2.00000000E+00, tsmear:   1.00000000E-02, }
meta: {optdriver: 0, ionmov: 0, optcell: 0, iscf: 7, paral_kgb: 0, }
...

 Real(R)+Recip(G) space primitive vectors, cartesian coordinates (Bohr,Bohr^-1):
 R(1)= 16.0000000  0.0000000  0.0000000  G(1)=  0.0625000  0.0000000  0.0000000
 R(2)=  0.0000000 16.0000000  0.0000000  G(2)=  0.0000000  0.0625000  0.0000000
 R(3)=  0.0000000  0.0000000 16.0000000  G(3)=  0.0000000  0.0000000  0.0625000
 Unit cell volume ucvol=  4.0960000E+03 bohr^3
 Angles (23,13,12)=  9.00000000E+01  9.00000000E+01  9.00000000E+01 degrees

 getcut: wavevector=  0.0000  0.0000  0.0000  ngfft=  75  75  75
         ecut(hartree)=     25.000   => boxcut(ratio)=   2.05483
   3.54915046E-01                                ecore*ucvol(ha*bohr**3)
--------------------------------------------------------------------------------

_setup2: Arith. and geom. avg. npw (full set) are   24405.000   24405.000

================================================================================

--- !BeginCycle
iteration_state: {dtset: 12, }
solver: {iscf: 7, nstep: 10, nline: 4, wfoptalg: 0, }
tolerances: {toldfe: 1.00E-06, }
...

     iter   Etot(hartree)      deltaE(h)  residm     vres2
 ETOT  1 -0.47825682777799    -4.783E-01 4.873E-05 1.627E+01
 ETOT  2 -0.47827524298257    -1.842E-05 2.987E-12 2.668E-02
 ETOT  3 -0.47827554622780    -3.032E-07 7.066E-09 6.162E-04
 ETOT  4 -0.47827555034588    -4.118E-09 9.034E-11 1.569E-06

 At SCF step    4, etot is converged : 
  for the second time, diff in etot=  4.118E-09 < toldfe=  1.000E-06

 Cartesian components of stress tensor (hartree/bohr^3)
  sigma(1 1)=  2.95966548E-07  sigma(3 2)=  0.00000000E+00
  sigma(2 2)=  2.95966548E-07  sigma(3 1)=  0.00000000E+00
  sigma(3 3)=  2.95966548E-07  sigma(2 1)=  0.00000000E+00


--- !ResultsGS
iteration_state: {dtset: 12, }
comment   : Summary of ground state results
lattice_vectors:
- [ 16.0000000,   0.0000000,   0.0000000, ]
- [  0.0000000,  16.0000000,   0.0000000, ]
- [  0.0000000,   0.0000000,  16.0000000, ]
lattice_lengths: [  16.00000,   16.00000,   16.00000, ]
lattice_angles: [ 90.000,  90.000,  90.000, ] # degrees, (23, 13, 12)
lattice_volume:   4.0960000E+03
convergence: {deltae: -4.118E-09, res2:  1.569E-06, residm:  9.034E-11, diffor: null, }
etotal    :  -4.78275550E-01
entropy   :   0.00000000E+00
fermie    :  -2.67322060E-01
cartesian_stress_tensor: # hartree/bohr^3
- [  2.95966548E-07,   0.00000000E+00,   0.00000000E+00, ]
- [  0.00000000E+00,   2.95966548E-07,   0.00000000E+00, ]
- [  0.00000000E+00,   0.00000000E+00,   2.95966548E-07, ]
pressure_GPa:  -8.7076E-03
xred      :
- [  0.0000E+00,   0.0000E+00,   0.0000E+00,  H]
cartesian_forces: # hartree/bohr
- [ -0.00000000E+00,  -0.00000000E+00,  -0.00000000E+00, ]
force_length_stats: {min:   0.00000000E+00, max:   0.00000000E+00, mean:   0.00000000E+00, }
...

 Integrated electronic and magnetization densities in atomic spheres:
 ---------------------------------------------------------------------
 Radius=ratsph(iatom), smearing ratsm=  0.0000. Diff(up-dn)=approximate z local magnetic moment.
 Atom    Radius    up_density   dn_density  Total(up+dn)  Diff(up-dn)
    1   2.00000     0.726779     0.000000      0.726779     0.726779
 ---------------------------------------------------------------------
  Sum:              0.726779     0.000000      0.726779     0.726779
 Total magnetization (from the atomic spheres):             0.726779
 Total magnetization (exact up - dn):                       1.000000
================================================================================

 ----iterations are completed or convergence reached----

 Mean square residual over all n,k,spin=   49.031E-12; max=  90.344E-12
 reduced coordinates (array xred) for    1 atoms
       0.000000000000      0.000000000000      0.000000000000
 rms dE/dt=  0.0000E+00; max dE/dt=  0.0000E+00; dE/dt below (all hartree)
    1       0.000000000000      0.000000000000      0.000000000000

 cartesian coordinates (angstrom) at end:
    1      0.00000000000000     0.00000000000000     0.00000000000000

 cartesian forces (hartree/bohr) at end:
    1     -0.00000000000000    -0.00000000000000    -0.00000000000000
 frms,max,avg= 0.0000000E+00 0.0000000E+00   0.000E+00  0.000E+00  0.000E+00 h/b

 cartesian forces (eV/Angstrom) at end:
    1     -0.00000000000000    -0.00000000000000    -0.00000000000000
 frms,max,avg= 0.0000000E+00 0.0000000E+00   0.000E+00  0.000E+00  0.000E+00 e/A
 length scales= 16.000000000000 16.000000000000 16.000000000000 bohr
              =  8.466835337440  8.466835337440  8.466835337440 angstroms
 prteigrs : about to open file tbase2_4o_DS12_EIG
 Fermi (or HOMO) energy (hartree) =  -0.26732   Average Vxc (hartree)=  -0.02159
 Eigenvalues (hartree) for nkpt=   1  k points, SPIN UP:
 kpt#   1, nband=  1, wtk=  1.00000, kpt=  0.0000  0.0000  0.0000 (reduced coord)
  -0.26732
 Eigenvalues (hartree) for nkpt=   1  k points, SPIN DOWN:
 kpt#   1, nband=  1, wtk=  1.00000, kpt=  0.0000  0.0000  0.0000 (reduced coord)
  -0.09528

--- !EnergyTerms
iteration_state     : {dtset: 12, }
comment             : Components of total free energy in Hartree
kinetic             :  4.56605200421430E-01
hartree             :  2.10826539417328E-01
xc                  : -2.77388055776760E-01
Ewald energy        : -8.86655462337693E-02
psp_core            :  8.66491811096866E-05
local_psp           : -7.17357677397901E-01
non_local_psp       : -6.23826599573187E-02
total_energy        : -4.78275550345882E-01
total_energy_eV     : -1.30145395913145E+01
band_energy         : -2.67322059595405E-01
...


 Cartesian components of stress tensor (hartree/bohr^3)
  sigma(1 1)=  2.95966548E-07  sigma(3 2)=  0.00000000E+00
  sigma(2 2)=  2.95966548E-07  sigma(3 1)=  0.00000000E+00
  sigma(3 3)=  2.95966548E-07  sigma(2 1)=  0.00000000E+00

-Cartesian components of stress tensor (GPa)         [Pressure= -8.7076E-03 GPa]
- sigma(1 1)=  8.70763500E-03  sigma(3 2)=  0.00000000E+00
- sigma(2 2)=  8.70763500E-03  sigma(3 1)=  0.00000000E+00
- sigma(3 3)=  8.70763500E-03  sigma(2 1)=  0.00000000E+00

== END DATASET(S) ==============================================================
================================================================================
  
 -outvars: echo values of variables after computation  --------
            acell      1.6000000000E+01  1.6000000000E+01  1.6000000000E+01 Bohr
              amu      1.00794000E+00
        bs_loband11         0
        bs_loband12         0       0
           diemac      1.00000000E+00
             ecut      2.50000000E+01 Hartree
           etotal11   -1.1369766875E+00
           etotal12   -4.7827555035E-01
            fcart11   -3.0980468157E-04 -0.0000000000E+00 -0.0000000000E+00
                       3.0980468157E-04 -0.0000000000E+00 -0.0000000000E+00
            fcart12   -0.0000000000E+00 -0.0000000000E+00 -0.0000000000E+00
-          fftalg         512
           ionmov11         2
           ionmov12         0
           istwfk        2
              ixc       -1012
           jdtset       11   12
           kptopt           0
P           mkmem           1
            natom11         2
            natom12         1
            nband11         1
            nband12         1       1
           ndtset           2
            ngfft          75      75      75
             nkpt           1
           nspden11         1
           nspden12         2
           nsppol11         1
           nsppol12         2
            nstep          10
             nsym11        16
             nsym12        48
            ntime11        10
            ntime12         1
           ntypat           1
              occ11    2.000000
              occ12    1.000000
                       0.000000
           occopt11         1
           occopt12         2
        optforces11         1
        optforces12         2
          spgroup11       123
          spgroup12       221
           spinat12    0.0000000000E+00  0.0000000000E+00  1.0000000000E+00
           strten11    4.6764552619E-07  7.8115665869E-07  7.8115665869E-07
                       0.0000000000E+00  0.0000000000E+00  0.0000000000E+00
           strten12    2.9596654784E-07  2.9596654784E-07  2.9596654784E-07
                       0.0000000000E+00  0.0000000000E+00  0.0000000000E+00
           symafm11      1    1    1    1    1    1    1    1    1    1
                         1    1    1    1    1    1
           symafm12      1    1    1    1    1    1    1    1    1    1
                         1    1    1    1    1    1    1    1    1    1
                         1    1    1    1    1    1    1    1    1    1
                         1    1    1    1    1    1    1    1    1    1
                         1    1    1    1    1    1    1    1
           symrel11    1  0  0   0  1  0   0  0  1      -1  0  0   0 -1  0   0  0 -1
                      -1  0  0   0  1  0   0  0 -1       1  0  0   0 -1  0   0  0  1
                      -1  0  0   0 -1  0   0  0  1       1  0  0   0  1  0   0  0 -1
                       1  0  0   0 -1  0   0  0 -1      -1  0  0   0  1  0   0  0  1
                       1  0  0   0  0  1   0  1  0      -1  0  0   0  0 -1   0 -1  0
                      -1  0  0   0  0  1   0 -1  0       1  0  0   0  0 -1   0  1  0
                      -1  0  0   0  0 -1   0  1  0       1  0  0   0  0  1   0 -1  0
                       1  0  0   0  0 -1   0 -1  0      -1  0  0   0  0  1   0  1  0
           symrel12    1  0  0   0  1  0   0  0  1      -1  0  0   0 -1  0   0  0 -1
                      -1  0  0   0  1  0   0  0 -1       1  0  0   0 -1  0   0  0  1
                      -1  0  0   0 -1  0   0  0  1       1  0  0   0  1  0   0  0 -1
                       1  0  0   0 -1  0   0  0 -1      -1  0  0   0  1  0   0  0  1
                       0  1  0   1  0  0   0  0  1       0 -1  0  -1  0  0   0  0 -1
                       0 -1  0   1  0  0   0  0 -1       0  1  0  -1  0  0   0  0  1
                       0 -1  0  -1  0  0   0  0  1       0  1  0   1  0  0   0  0 -1
                       0  1  0  -1  0  0   0  0 -1       0 -1  0   1  0  0   0  0  1
                       0  0  1   1  0  0   0  1  0       0  0 -1  -1  0  0   0 -1  0
                       0  0 -1   1  0  0   0 -1  0       0  0  1  -1  0  0   0  1  0
                       0  0 -1  -1  0  0   0  1  0       0  0  1   1  0  0   0 -1  0
                       0  0  1  -1  0  0   0 -1  0       0  0 -1   1  0  0   0  1  0
                       1  0  0   0  0  1   0  1  0      -1  0  0   0  0 -1   0 -1  0
                      -1  0  0   0  0  1   0 -1  0       1  0  0   0  0 -1   0  1  0
                      -1  0  0   0  0 -1   0  1  0       1  0  0   0  0  1   0 -1  0
                       1  0  0   0  0 -1   0 -1  0      -1  0  0   0  0  1   0  1  0
                       0  1  0   0  0  1   1  0  0       0 -1  0   0  0 -1  -1  0  0
                       0 -1  0   0  0  1  -1  0  0       0  1  0   0  0 -1   1  0  0
                       0 -1  0   0  0 -1   1  0  0       0  1  0   0  0  1  -1  0  0
                       0  1  0   0  0 -1  -1  0  0       0 -1  0   0  0  1   1  0  0
                       0  0  1   0  1  0   1  0  0       0  0 -1   0 -1  0  -1  0  0
                       0  0 -1   0  1  0  -1  0  0       0  0  1   0 -1  0   1  0  0
                       0  0 -1   0 -1  0   1  0  0       0  0  1   0  1  0  -1  0  0
                       0  0  1   0 -1  0  -1  0  0       0  0 -1   0  1  0   1  0  0
            tnons11    0.0000000  0.0000000  0.0000000     0.0000000  0.0000000  0.0000000
                       0.0000000  0.0000000  0.0000000     0.0000000  0.0000000  0.0000000
                       0.0000000  0.0000000  0.0000000     0.0000000  0.0000000  0.0000000
                       0.0000000  0.0000000  0.0000000     0.0000000  0.0000000  0.0000000
                       0.0000000  0.0000000  0.0000000     0.0000000  0.0000000  0.0000000
                       0.0000000  0.0000000  0.0000000     0.0000000  0.0000000  0.0000000
                       0.0000000  0.0000000  0.0000000     0.0000000  0.0000000  0.0000000
                       0.0000000  0.0000000  0.0000000     0.0000000  0.0000000  0.0000000
            tnons12    0.0000000  0.0000000  0.0000000     0.0000000  0.0000000  0.0000000
                       0.0000000  0.0000000  0.0000000     0.0000000  0.0000000  0.0000000
                       0.0000000  0.0000000  0.0000000     0.0000000  0.0000000  0.0000000
                       0.0000000  0.0000000  0.0000000     0.0000000  0.0000000  0.0000000
                       0.0000000  0.0000000  0.0000000     0.0000000  0.0000000  0.0000000
                       0.0000000  0.0000000  0.0000000     0.0000000  0.0000000  0.0000000
                       0.0000000  0.0000000  0.0000000     0.0000000  0.0000000  0.0000000
                       0.0000000  0.0000000  0.0000000     0.0000000  0.0000000  0.0000000
                       0.0000000  0.0000000  0.0000000     0.0000000  0.0000000  0.0000000
                       0.0000000  0.0000000  0.0000000     0.0000000  0.0000000  0.0000000
                       0.0000000  0.0000000  0.0000000     0.0000000  0.0000000  0.0000000
                       0.0000000  0.0000000  0.0000000     0.0000000  0.0000000  0.0000000
                       0.0000000  0.0000000  0.0000000     0.0000000  0.0000000  0.0000000
                       0.0000000  0.0000000  0.0000000     0.0000000  0.0000000  0.0000000
                       0.0000000  0.0000000  0.0000000     0.0000000  0.0000000  0.0000000
                       0.0000000  0.0000000  0.0000000     0.0000000  0.0000000  0.0000000
                       0.0000000  0.0000000  0.0000000     0.0000000  0.0000000  0.0000000
                       0.0000000  0.0000000  0.0000000     0.0000000  0.0000000  0.0000000
                       0.0000000  0.0000000  0.0000000     0.0000000  0.0000000  0.0000000
                       0.0000000  0.0000000  0.0000000     0.0000000  0.0000000  0.0000000
                       0.0000000  0.0000000  0.0000000     0.0000000  0.0000000  0.0000000
                       0.0000000  0.0000000  0.0000000     0.0000000  0.0000000  0.0000000
                       0.0000000  0.0000000  0.0000000     0.0000000  0.0000000  0.0000000
                       0.0000000  0.0000000  0.0000000     0.0000000  0.0000000  0.0000000
           toldfe11    0.00000000E+00 Hartree
           toldfe12    1.00000000E-06 Hartree
           toldff11    5.00000000E-05
           toldff12    0.00000000E+00
           tolmxf11    5.00000000E-04
           tolmxf12    5.00000000E-05
            typat11    1  1
            typat12    1
           xangst11   -3.8238245498E-01  0.0000000000E+00  0.0000000000E+00
                       3.8238245498E-01  0.0000000000E+00  0.0000000000E+00
           xangst12    0.0000000000E+00  0.0000000000E+00  0.0000000000E+00
            xcart11   -7.2259811794E-01  0.0000000000E+00  0.0000000000E+00
                       7.2259811794E-01  0.0000000000E+00  0.0000000000E+00
            xcart12    0.0000000000E+00  0.0000000000E+00  0.0000000000E+00
             xred11   -4.5162382371E-02  0.0000000000E+00  0.0000000000E+00
                       4.5162382371E-02  0.0000000000E+00  0.0000000000E+00
             xred12    0.0000000000E+00  0.0000000000E+00  0.0000000000E+00
            znucl        1.00000

================================================================================


- Timing analysis has been suppressed with timopt=0



================================================================================

 Suggested references for the acknowledgment of ABINIT usage.

 The users of ABINIT have little formal obligations with respect to the ABINIT group
 (those specified in the GNU General Public License, http://www.gnu.org/copyleft/gpl.txt).
 However, it is common practice in the scientific literature,
 to acknowledge the efforts of people that have made the research possible.
 In this spirit, please find below suggested citations of work written by ABINIT developers,
 corresponding to implementations inside of ABINIT that you have used in the present run.
 Note also that it will be of great value to readers of publications presenting these results,
 to read papers enabling them to understand the theoretical formalism and details
 of the ABINIT implementation.
 For information on why they are suggested, see also https://docs.abinit.org/theory/acknowledgments.
-
- [1] Libxc: A library of exchange and correlation functionals for density functional theory.
- M.A.L. Marques, M.J.T. Oliveira, T. Burnus, Computer Physics Communications 183, 2227 (2012).
- Comment: to be cited when LibXC is used (negative value of ixc)
- Strong suggestion to cite this paper.
- DOI and bibtex: see https://docs.abinit.org/theory/bibliography/#marques2012
-
- [2] The Abinit project: Impact, environment and recent developments.
- Computer Phys. Comm. 248, 107042 (2020).
- X.Gonze, B. Amadon, G. Antonius, F.Arnardi, L.Baguet, J.-M.Beuken,
- J.Bieder, F.Bottin, J.Bouchet, E.Bousquet, N.Brouwer, F.Bruneval,
- G.Brunin, T.Cavignac, J.-B. Charraud, Wei Chen, M.Cote, S.Cottenier,
- J.Denier, G.Geneste, Ph.Ghosez, M.Giantomassi, Y.Gillet, O.Gingras,
- D.R.Hamann, G.Hautier, Xu He, N.Helbig, N.Holzwarth, Y.Jia, F.Jollet,
- W.Lafargue-Dit-Hauret, K.Lejaeghere, M.A.L.Marques, A.Martin, C.Martins,
- H.P.C. Miranda, F.Naccarato, K. Persson, G.Petretto, V.Planes, Y.Pouillon,
- S.Prokhorenko, F.Ricci, G.-M.Rignanese, A.H.Romero, M.M.Schmitt, M.Torrent,
- M.J.van Setten, B.Van Troeye, M.J.Verstraete, G.Zerah and J.W.Zwanzig
- Comment: the fifth generic paper describing the ABINIT project.
- Note that a version of this paper, that is not formatted for Computer Phys. Comm. 
- is available at https://www.abinit.org/sites/default/files/ABINIT20.pdf .
- The licence allows the authors to put it on the Web.
- DOI and bibtex: see https://docs.abinit.org/theory/bibliography/#gonze2020
-
- [3] Optimized norm-conserving Vanderbilt pseudopotentials.
- D.R. Hamann, Phys. Rev. B 88, 085117 (2013).
- Comment: Some pseudopotential generated using the ONCVPSP code were used.
- DOI and bibtex: see https://docs.abinit.org/theory/bibliography/#hamann2013
-
- [4] ABINIT: Overview, and focus on selected capabilities
- J. Chem. Phys. 152, 124102 (2020).
- A. Romero, D.C. Allan, B. Amadon, G. Antonius, T. Applencourt, L.Baguet,
- J.Bieder, F.Bottin, J.Bouchet, E.Bousquet, F.Bruneval,
- G.Brunin, D.Caliste, M.Cote,
- J.Denier, C. Dreyer, Ph.Ghosez, M.Giantomassi, Y.Gillet, O.Gingras,
- D.R.Hamann, G.Hautier, F.Jollet, G. Jomard,
- A.Martin, 
- H.P.C. Miranda, F.Naccarato, G.Petretto, N.A. Pike, V.Planes,
- S.Prokhorenko, T. Rangel, F.Ricci, G.-M.Rignanese, M.Royo, M.Stengel, M.Torrent,
- M.J.van Setten, B.Van Troeye, M.J.Verstraete, J.Wiktor, J.W.Zwanziger, and X.Gonze.
- Comment: a global overview of ABINIT, with focus on selected capabilities .
- Note that a version of this paper, that is not formatted for J. Chem. Phys 
- is available at https://www.abinit.org/sites/default/files/ABINIT20_JPC.pdf .
- The licence allows the authors to put it on the Web.
- DOI and bibtex: see https://docs.abinit.org/theory/bibliography/#romero2020
-
- [5] Recent developments in the ABINIT software package.
- Computer Phys. Comm. 205, 106 (2016).
- X.Gonze, F.Jollet, F.Abreu Araujo, D.Adams, B.Amadon, T.Applencourt,
- C.Audouze, J.-M.Beuken, J.Bieder, A.Bokhanchuk, E.Bousquet, F.Bruneval
- D.Caliste, M.Cote, F.Dahm, F.Da Pieve, M.Delaveau, M.Di Gennaro,
- B.Dorado, C.Espejo, G.Geneste, L.Genovese, A.Gerossier, M.Giantomassi,
- Y.Gillet, D.R.Hamann, L.He, G.Jomard, J.Laflamme Janssen, S.Le Roux,
- A.Levitt, A.Lherbier, F.Liu, I.Lukacevic, A.Martin, C.Martins,
- M.J.T.Oliveira, S.Ponce, Y.Pouillon, T.Rangel, G.-M.Rignanese,
- A.H.Romero, B.Rousseau, O.Rubel, A.A.Shukri, M.Stankovski, M.Torrent,
- M.J.Van Setten, B.Van Troeye, M.J.Verstraete, D.Waroquier, J.Wiktor,
- B.Xu, A.Zhou, J.W.Zwanziger.
- Comment: the fourth generic paper describing the ABINIT project.
- Note that a version of this paper, that is not formatted for Computer Phys. Comm. 
- is available at https://www.abinit.org/sites/default/files/ABINIT16.pdf .
- The licence allows the authors to put it on the Web.
- DOI and bibtex: see https://docs.abinit.org/theory/bibliography/#gonze2016
-
- Proc.   0 individual time (sec): cpu=          5.4  wall=          5.4

================================================================================

 Calculation completed.
.Delivered  22 WARNINGs and   5 COMMENTs to log file.
+Overall time at end (sec) : cpu=          5.4  wall=          5.4
