
.Version 9.3.3 of ABINIT 
.(sequential version, prepared for a x86_64_linux_gnu9.3 computer) 

.Copyright (C) 1998-2020 ABINIT group . 
 ABINIT comes with ABSOLUTELY NO WARRANTY.
 It is free software, and you are welcome to redistribute it
 under certain conditions (GNU General Public License,
 see ~abinit/COPYING or http://www.gnu.org/copyleft/gpl.txt).

 ABINIT is a project of the Universite Catholique de Louvain,
 Corning Inc. and other collaborators, see ~abinit/doc/developers/contributors.txt .
 Please read https://docs.abinit.org/theory/acknowledgments for suggested
 acknowledgments of the ABINIT effort.
 For more information, see https://www.abinit.org .

.Starting date : Wed 30 Dec 2020.
- ( at 19h15 )
  
- input  file    -> /home/buildbot/ABINIT/alps_gnu_9.3_serial/trunk_beauty/tests/TestBot_MPI1/tutorial_tbase2_5/tbase2_5.abi
- output file    -> tbase2_5.abo
- root for input  files -> tbase2_5i
- root for output files -> tbase2_5o


 DATASET   11 : space group P4/m m m (#123); Bravais tP (primitive tetrag.)
================================================================================
 Values of the parameters that define the memory need for DATASET 11.
     intxc =       0    ionmov =       2      iscf =       7    lmnmax =       3
     lnmax =       3     mgfft =      60  mpssoang =       2    mqgrid =    3001
     natom =       2  nloc_mem =       1    nspden =       1   nspinor =       1
    nsppol =       1      nsym =      16    n1xccc =       0    ntypat =       1
    occopt =       1   xclevel =       2
-    mband =           1        mffmem =           1         mkmem =           1
       mpw =        6759          nfft =      216000          nkpt =           1
================================================================================
P This job should need less than                      66.687 Mbytes of memory.
  Rough estimation (10% accuracy) of disk space for files :
_ WF disk file :      0.105 Mbytes ; DEN or POT disk file :      1.650 Mbytes.
================================================================================


 DATASET   12 : space group Pm -3 m (#221); Bravais cP (primitive cubic)
================================================================================
 Values of the parameters that define the memory need for DATASET 12.
     intxc =       0    ionmov =       0      iscf =       7    lmnmax =       3
     lnmax =       3     mgfft =      60  mpssoang =       2    mqgrid =    3001
     natom =       1  nloc_mem =       1    nspden =       2   nspinor =       1
    nsppol =       2      nsym =      48    n1xccc =       0    ntypat =       1
    occopt =       2   xclevel =       2
-    mband =           1        mffmem =           1         mkmem =           1
       mpw =        6759          nfft =      216000          nkpt =           1
================================================================================
P This job should need less than                     111.274 Mbytes of memory.
  Rough estimation (10% accuracy) of disk space for files :
_ WF disk file :      0.208 Mbytes ; DEN or POT disk file :      3.298 Mbytes.
================================================================================

--------------------------------------------------------------------------------
------------- Echo of variables that govern the present computation ------------
--------------------------------------------------------------------------------
-
- outvars: echo of selected default values                                      
-   iomode0 =  0 , fftalg0 =312 , wfoptalg0 =  0
-
- outvars: echo of global parameters not present in the input file              
-  max_nthreads =    0
-
 -outvars: echo values of preprocessed input variables --------
            acell      1.2000000000E+01  1.2000000000E+01  1.2000000000E+01 Bohr
              amu      1.00794000E+00
        bs_loband11         0
        bs_loband12         0       0
           diemac      2.00000000E+00
             ecut      3.00000000E+01 Hartree
-          fftalg         312
           ionmov11         2
           ionmov12         0
           istwfk        2
              ixc          11
           jdtset       11   12
           kptopt           0
P           mkmem           1
            natom11         2
            natom12         1
            nband11         1
            nband12         1       1
           ndtset           2
            ngfft          60      60      60
             nkpt           1
           nspden11         1
           nspden12         2
           nsppol11         1
           nsppol12         2
            nstep          10
             nsym11        16
             nsym12        48
            ntime11        10
            ntime12         1
           ntypat           1
              occ11    2.000000
              occ12    1.000000
                       0.000000
           occopt11         1
           occopt12         2
        optforces11         1
        optforces12         2
          spgroup11       123
          spgroup12       221
           spinat12    0.0000000000E+00  0.0000000000E+00  1.0000000000E+00
           symafm11      1    1    1    1    1    1    1    1    1    1
                         1    1    1    1    1    1
           symafm12      1    1    1    1    1    1    1    1    1    1
                         1    1    1    1    1    1    1    1    1    1
                         1    1    1    1    1    1    1    1    1    1
                         1    1    1    1    1    1    1    1    1    1
                         1    1    1    1    1    1    1    1
           symrel11    1  0  0   0  1  0   0  0  1      -1  0  0   0 -1  0   0  0 -1
                      -1  0  0   0  1  0   0  0 -1       1  0  0   0 -1  0   0  0  1
                      -1  0  0   0 -1  0   0  0  1       1  0  0   0  1  0   0  0 -1
                       1  0  0   0 -1  0   0  0 -1      -1  0  0   0  1  0   0  0  1
                       1  0  0   0  0  1   0  1  0      -1  0  0   0  0 -1   0 -1  0
                      -1  0  0   0  0  1   0 -1  0       1  0  0   0  0 -1   0  1  0
                      -1  0  0   0  0 -1   0  1  0       1  0  0   0  0  1   0 -1  0
                       1  0  0   0  0 -1   0 -1  0      -1  0  0   0  0  1   0  1  0
           symrel12    1  0  0   0  1  0   0  0  1      -1  0  0   0 -1  0   0  0 -1
                      -1  0  0   0  1  0   0  0 -1       1  0  0   0 -1  0   0  0  1
                      -1  0  0   0 -1  0   0  0  1       1  0  0   0  1  0   0  0 -1
                       1  0  0   0 -1  0   0  0 -1      -1  0  0   0  1  0   0  0  1
                       0  1  0   1  0  0   0  0  1       0 -1  0  -1  0  0   0  0 -1
                       0 -1  0   1  0  0   0  0 -1       0  1  0  -1  0  0   0  0  1
                       0 -1  0  -1  0  0   0  0  1       0  1  0   1  0  0   0  0 -1
                       0  1  0  -1  0  0   0  0 -1       0 -1  0   1  0  0   0  0  1
                       0  0  1   1  0  0   0  1  0       0  0 -1  -1  0  0   0 -1  0
                       0  0 -1   1  0  0   0 -1  0       0  0  1  -1  0  0   0  1  0
                       0  0 -1  -1  0  0   0  1  0       0  0  1   1  0  0   0 -1  0
                       0  0  1  -1  0  0   0 -1  0       0  0 -1   1  0  0   0  1  0
                       1  0  0   0  0  1   0  1  0      -1  0  0   0  0 -1   0 -1  0
                      -1  0  0   0  0  1   0 -1  0       1  0  0   0  0 -1   0  1  0
                      -1  0  0   0  0 -1   0  1  0       1  0  0   0  0  1   0 -1  0
                       1  0  0   0  0 -1   0 -1  0      -1  0  0   0  0  1   0  1  0
                       0  1  0   0  0  1   1  0  0       0 -1  0   0  0 -1  -1  0  0
                       0 -1  0   0  0  1  -1  0  0       0  1  0   0  0 -1   1  0  0
                       0 -1  0   0  0 -1   1  0  0       0  1  0   0  0  1  -1  0  0
                       0  1  0   0  0 -1  -1  0  0       0 -1  0   0  0  1   1  0  0
                       0  0  1   0  1  0   1  0  0       0  0 -1   0 -1  0  -1  0  0
                       0  0 -1   0  1  0  -1  0  0       0  0  1   0 -1  0   1  0  0
                       0  0 -1   0 -1  0   1  0  0       0  0  1   0  1  0  -1  0  0
                       0  0  1   0 -1  0  -1  0  0       0  0 -1   0  1  0   1  0  0
            tnons11    0.0000000  0.0000000  0.0000000     0.0000000  0.0000000  0.0000000
                       0.0000000  0.0000000  0.0000000     0.0000000  0.0000000  0.0000000
                       0.0000000  0.0000000  0.0000000     0.0000000  0.0000000  0.0000000
                       0.0000000  0.0000000  0.0000000     0.0000000  0.0000000  0.0000000
                       0.0000000  0.0000000  0.0000000     0.0000000  0.0000000  0.0000000
                       0.0000000  0.0000000  0.0000000     0.0000000  0.0000000  0.0000000
                       0.0000000  0.0000000  0.0000000     0.0000000  0.0000000  0.0000000
                       0.0000000  0.0000000  0.0000000     0.0000000  0.0000000  0.0000000
            tnons12    0.0000000  0.0000000  0.0000000     0.0000000  0.0000000  0.0000000
                       0.0000000  0.0000000  0.0000000     0.0000000  0.0000000  0.0000000
                       0.0000000  0.0000000  0.0000000     0.0000000  0.0000000  0.0000000
                       0.0000000  0.0000000  0.0000000     0.0000000  0.0000000  0.0000000
                       0.0000000  0.0000000  0.0000000     0.0000000  0.0000000  0.0000000
                       0.0000000  0.0000000  0.0000000     0.0000000  0.0000000  0.0000000
                       0.0000000  0.0000000  0.0000000     0.0000000  0.0000000  0.0000000
                       0.0000000  0.0000000  0.0000000     0.0000000  0.0000000  0.0000000
                       0.0000000  0.0000000  0.0000000     0.0000000  0.0000000  0.0000000
                       0.0000000  0.0000000  0.0000000     0.0000000  0.0000000  0.0000000
                       0.0000000  0.0000000  0.0000000     0.0000000  0.0000000  0.0000000
                       0.0000000  0.0000000  0.0000000     0.0000000  0.0000000  0.0000000
                       0.0000000  0.0000000  0.0000000     0.0000000  0.0000000  0.0000000
                       0.0000000  0.0000000  0.0000000     0.0000000  0.0000000  0.0000000
                       0.0000000  0.0000000  0.0000000     0.0000000  0.0000000  0.0000000
                       0.0000000  0.0000000  0.0000000     0.0000000  0.0000000  0.0000000
                       0.0000000  0.0000000  0.0000000     0.0000000  0.0000000  0.0000000
                       0.0000000  0.0000000  0.0000000     0.0000000  0.0000000  0.0000000
                       0.0000000  0.0000000  0.0000000     0.0000000  0.0000000  0.0000000
                       0.0000000  0.0000000  0.0000000     0.0000000  0.0000000  0.0000000
                       0.0000000  0.0000000  0.0000000     0.0000000  0.0000000  0.0000000
                       0.0000000  0.0000000  0.0000000     0.0000000  0.0000000  0.0000000
                       0.0000000  0.0000000  0.0000000     0.0000000  0.0000000  0.0000000
                       0.0000000  0.0000000  0.0000000     0.0000000  0.0000000  0.0000000
           toldfe11    0.00000000E+00 Hartree
           toldfe12    1.00000000E-06 Hartree
           toldff11    5.00000000E-05
           toldff12    0.00000000E+00
           tolmxf11    5.00000000E-04
           tolmxf12    5.00000000E-05
            typat11    1  1
            typat12    1
           xangst11   -3.7042404601E-01  0.0000000000E+00  0.0000000000E+00
                       3.7042404601E-01  0.0000000000E+00  0.0000000000E+00
           xangst12    0.0000000000E+00  0.0000000000E+00  0.0000000000E+00
            xcart11   -7.0000000000E-01  0.0000000000E+00  0.0000000000E+00
                       7.0000000000E-01  0.0000000000E+00  0.0000000000E+00
            xcart12    0.0000000000E+00  0.0000000000E+00  0.0000000000E+00
             xred11   -5.8333333333E-02  0.0000000000E+00  0.0000000000E+00
                       5.8333333333E-02  0.0000000000E+00  0.0000000000E+00
             xred12    0.0000000000E+00  0.0000000000E+00  0.0000000000E+00
            znucl        1.00000

================================================================================

 chkinp: Checking input parameters for consistency, jdtset=  11.

 chkinp: Checking input parameters for consistency, jdtset=  12.

================================================================================
== DATASET 11 ==================================================================
-   mpi_nproc: 1, omp_nthreads: -1 (-1 if OMP is not activated)


--- !DatasetInfo
iteration_state: {dtset: 11, }
dimensions: {natom: 2, nkpt: 1, mband: 1, nsppol: 1, nspinor: 1, nspden: 1, mpw: 6759, }
cutoff_energies: {ecut:  30.0, pawecutdg:  -1.0, }
electrons: {nelect:   2.00000000E+00, charge:   0.00000000E+00, occopt:   1.00000000E+00, tsmear:   1.00000000E-02, }
meta: {optdriver: 0, ionmov: 2, optcell: 0, iscf: 7, paral_kgb: 0, }
...

 Exchange-correlation functional for the present dataset will be:
  GGA: Perdew-Burke-Ernzerhof functional - ixc=11
 Citation for XC functional:
  J.P.Perdew, K.Burke, M.Ernzerhof, PRL 77, 3865 (1996)

 Real(R)+Recip(G) space primitive vectors, cartesian coordinates (Bohr,Bohr^-1):
 R(1)= 12.0000000  0.0000000  0.0000000  G(1)=  0.0833333  0.0000000  0.0000000
 R(2)=  0.0000000 12.0000000  0.0000000  G(2)=  0.0000000  0.0833333  0.0000000
 R(3)=  0.0000000  0.0000000 12.0000000  G(3)=  0.0000000  0.0000000  0.0833333
 Unit cell volume ucvol=  1.7280000E+03 bohr^3
 Angles (23,13,12)=  9.00000000E+01  9.00000000E+01  9.00000000E+01 degrees

 getcut: wavevector=  0.0000  0.0000  0.0000  ngfft=  60  60  60
         ecut(hartree)=     30.000   => boxcut(ratio)=   2.02789

--- Pseudopotential description ------------------------------------------------
- pspini: atom type   1  psp file is /home/buildbot/ABINIT/alps_gnu_9.3_serial/trunk_beauty/tests/Psps_for_tests/Pseudodojo_nc_sr_04_pbe_standard_psp8/H.psp8
- pspatm: opening atomic psp file    /home/buildbot/ABINIT/alps_gnu_9.3_serial/trunk_beauty/tests/Psps_for_tests/Pseudodojo_nc_sr_04_pbe_standard_psp8/H.psp8
- H     ONCVPSP-3.2.3.1  r_core=   1.00957   0.70586
-  1.00000   1.00000    170501                znucl, zion, pspdat
    8   11    1    4       300   0.00000      pspcod,pspxc,lmax,lloc,mmax,r2well
    2.99000000000000    0.00000000000000    0.00000000000000   rchrg,fchrg,qchrg
     nproj     2     1
     extension_switch     1
  pspatm : epsatm=    0.36235122
         --- l  ekb(1:nproj) -->
             0   -1.701123   -0.534484
             1   -0.503321
 pspatm: atomic psp has been read  and splines computed

   1.44940486E+00                                ecore*ucvol(ha*bohr**3)
--------------------------------------------------------------------------------

_setup2: Arith. and geom. avg. npw (full set) are   13517.000   13517.000

================================================================================

=== [ionmov= 2] Broyden-Fletcher-Goldfard-Shanno method (forces)            
================================================================================

--- Iteration: ( 1/10) Internal Cycle: (1/1)
--------------------------------------------------------------------------------

---SELF-CONSISTENT-FIELD CONVERGENCE--------------------------------------------

--- !BeginCycle
iteration_state: {dtset: 11, itime: 1, icycle: 1, }
solver: {iscf: 7, nstep: 10, nline: 4, wfoptalg: 0, }
tolerances: {toldff: 5.00E-05, }
...

     iter   Etot(hartree)      deltaE(h)  residm     vres2    diffor    maxfor
 ETOT  1  -1.1590535430931    -1.159E+00 5.060E-05 1.104E+02 2.133E-02 2.133E-02
 ETOT  2  -1.1664679463070    -7.414E-03 3.443E-09 4.018E+00 2.971E-02 8.381E-03
 ETOT  3  -1.1665565906193    -8.864E-05 1.228E-07 7.551E-01 2.955E-03 5.425E-03
 ETOT  4  -1.1665608092772    -4.219E-06 1.364E-08 1.250E-01 5.367E-04 5.962E-03
 ETOT  5  -1.1665611063604    -2.971E-07 1.518E-09 5.186E-02 1.709E-04 6.133E-03
 ETOT  6  -1.1665611110951    -4.735E-09 1.408E-11 1.392E-02 1.385E-05 6.147E-03
 ETOT  7  -1.1665611129579    -1.863E-09 8.872E-12 6.273E-04 1.153E-05 6.158E-03

 At SCF step    7, forces are converged : 
  for the second time, max diff in force=  1.153E-05 < toldff=  5.000E-05

 Cartesian components of stress tensor (hartree/bohr^3)
  sigma(1 1)= -3.78202531E-06  sigma(3 2)=  0.00000000E+00
  sigma(2 2)=  1.20731272E-06  sigma(3 1)=  0.00000000E+00
  sigma(3 3)=  1.20731272E-06  sigma(2 1)=  0.00000000E+00


--- !ResultsGS
iteration_state: {dtset: 11, itime: 1, icycle: 1, }
comment   : Summary of ground state results
lattice_vectors:
- [ 12.0000000,   0.0000000,   0.0000000, ]
- [  0.0000000,  12.0000000,   0.0000000, ]
- [  0.0000000,   0.0000000,  12.0000000, ]
lattice_lengths: [  12.00000,   12.00000,   12.00000, ]
lattice_angles: [ 90.000,  90.000,  90.000, ] # degrees, (23, 13, 12)
lattice_volume:   1.7280000E+03
convergence: {deltae: -1.863E-09, res2:  6.273E-04, residm:  8.872E-12, diffor:  1.153E-05, }
etotal    :  -1.16656111E+00
entropy   :   0.00000000E+00
fermie    :  -3.77894535E-01
cartesian_stress_tensor: # hartree/bohr^3
- [ -3.78202531E-06,   0.00000000E+00,   0.00000000E+00, ]
- [  0.00000000E+00,   1.20731272E-06,   0.00000000E+00, ]
- [  0.00000000E+00,   0.00000000E+00,   1.20731272E-06, ]
pressure_GPa:   1.3410E-02
xred      :
- [ -5.8333E-02,   0.0000E+00,   0.0000E+00,  H]
- [  5.8333E-02,   0.0000E+00,   0.0000E+00,  H]
cartesian_forces: # hartree/bohr
- [ -6.15822483E-03,  -0.00000000E+00,  -0.00000000E+00, ]
- [  6.15822483E-03,  -0.00000000E+00,  -0.00000000E+00, ]
force_length_stats: {min:   6.15822483E-03, max:   6.15822483E-03, mean:   6.15822483E-03, }
...

 Integrated electronic density in atomic spheres:
 ------------------------------------------------
 Atom  Sphere_radius  Integrated_density
    1        2.00000          1.49310908
    2        2.00000          1.49310908

---OUTPUT-----------------------------------------------------------------------

 Cartesian coordinates (xcart) [bohr]
 -7.00000000000000E-01  0.00000000000000E+00  0.00000000000000E+00
  7.00000000000000E-01  0.00000000000000E+00  0.00000000000000E+00
 Reduced coordinates (xred)
 -5.83333333333333E-02  0.00000000000000E+00  0.00000000000000E+00
  5.83333333333333E-02  0.00000000000000E+00  0.00000000000000E+00
 Cartesian forces (fcart) [Ha/bohr]; max,rms= 6.15822E-03 3.55545E-03 (free atoms)
 -6.15822483199392E-03 -0.00000000000000E+00 -0.00000000000000E+00
  6.15822483199392E-03 -0.00000000000000E+00 -0.00000000000000E+00
 Reduced forces (fred)
  7.38986979839270E-02  0.00000000000000E+00  0.00000000000000E+00
 -7.38986979839270E-02 -0.00000000000000E+00 -0.00000000000000E+00
 Total energy (etotal) [Ha]= -1.16656111295791E+00

--- Iteration: ( 2/10) Internal Cycle: (1/1)
--------------------------------------------------------------------------------

---SELF-CONSISTENT-FIELD CONVERGENCE--------------------------------------------

--- !BeginCycle
iteration_state: {dtset: 11, itime: 2, icycle: 1, }
solver: {iscf: 7, nstep: 10, nline: 4, wfoptalg: 0, }
tolerances: {toldff: 5.00E-05, }
...

     iter   Etot(hartree)      deltaE(h)  residm     vres2    diffor    maxfor
 ETOT  1  -1.1666082981605    -1.167E+00 1.630E-11 2.058E+01 5.802E-03 3.561E-04
 ETOT  2  -1.1666089927774    -6.946E-07 2.576E-13 1.158E-01 1.215E-03 1.571E-03
 ETOT  3  -1.1666090065593    -1.378E-08 1.952E-11 9.408E-04 8.055E-05 1.652E-03
 ETOT  4  -1.1666090070217    -4.624E-10 4.179E-13 2.819E-05 3.350E-06 1.648E-03
 ETOT  5  -1.1666090070315    -9.756E-12 8.579E-15 2.942E-06 6.801E-07 1.649E-03

 At SCF step    5, forces are converged : 
  for the second time, max diff in force=  6.801E-07 < toldff=  5.000E-05

 Cartesian components of stress tensor (hartree/bohr^3)
  sigma(1 1)= -1.31348042E-07  sigma(3 2)=  0.00000000E+00
  sigma(2 2)=  1.20991015E-06  sigma(3 1)=  0.00000000E+00
  sigma(3 3)=  1.20991015E-06  sigma(2 1)=  0.00000000E+00


--- !ResultsGS
iteration_state: {dtset: 11, itime: 2, icycle: 1, }
comment   : Summary of ground state results
lattice_vectors:
- [ 12.0000000,   0.0000000,   0.0000000, ]
- [  0.0000000,  12.0000000,   0.0000000, ]
- [  0.0000000,   0.0000000,  12.0000000, ]
lattice_lengths: [  12.00000,   12.00000,   12.00000, ]
lattice_angles: [ 90.000,  90.000,  90.000, ] # degrees, (23, 13, 12)
lattice_volume:   1.7280000E+03
convergence: {deltae: -9.756E-12, res2:  2.942E-06, residm:  8.579E-15, diffor:  6.801E-07, }
etotal    :  -1.16660901E+00
entropy   :   0.00000000E+00
fermie    :  -3.76722252E-01
cartesian_stress_tensor: # hartree/bohr^3
- [ -1.31348042E-07,   0.00000000E+00,   0.00000000E+00, ]
- [  0.00000000E+00,   1.20991015E-06,   0.00000000E+00, ]
- [  0.00000000E+00,   0.00000000E+00,   1.20991015E-06, ]
pressure_GPa:  -2.2443E-02
xred      :
- [ -5.8847E-02,   0.0000E+00,   0.0000E+00,  H]
- [  5.8847E-02,   0.0000E+00,   0.0000E+00,  H]
cartesian_forces: # hartree/bohr
- [ -1.64910915E-03,  -0.00000000E+00,  -0.00000000E+00, ]
- [  1.64910915E-03,  -0.00000000E+00,  -0.00000000E+00, ]
force_length_stats: {min:   1.64910915E-03, max:   1.64910915E-03, mean:   1.64910915E-03, }
...

 Integrated electronic density in atomic spheres:
 ------------------------------------------------
 Atom  Sphere_radius  Integrated_density
    1        2.00000          1.49015344
    2        2.00000          1.49015344

---OUTPUT-----------------------------------------------------------------------

 Cartesian coordinates (xcart) [bohr]
 -7.06158224831994E-01  0.00000000000000E+00  0.00000000000000E+00
  7.06158224831994E-01  0.00000000000000E+00  0.00000000000000E+00
 Reduced coordinates (xred)
 -5.88465187359995E-02  0.00000000000000E+00  0.00000000000000E+00
  5.88465187359995E-02  0.00000000000000E+00  0.00000000000000E+00
 Cartesian forces (fcart) [Ha/bohr]; max,rms= 1.64911E-03 9.52114E-04 (free atoms)
 -1.64910915422315E-03 -0.00000000000000E+00 -0.00000000000000E+00
  1.64910915422315E-03 -0.00000000000000E+00 -0.00000000000000E+00
 Reduced forces (fred)
  1.97893098506778E-02  0.00000000000000E+00  0.00000000000000E+00
 -1.97893098506778E-02 -0.00000000000000E+00 -0.00000000000000E+00
 Total energy (etotal) [Ha]= -1.16660900703148E+00

 Difference of energy with previous step (new-old):
           Absolute (Ha)=-4.78941E-05
           Relative     =-4.10549E-05

--- Iteration: ( 3/10) Internal Cycle: (1/1)
--------------------------------------------------------------------------------

---SELF-CONSISTENT-FIELD CONVERGENCE--------------------------------------------

--- !BeginCycle
iteration_state: {dtset: 11, itime: 3, icycle: 1, }
solver: {iscf: 7, nstep: 10, nline: 4, wfoptalg: 0, }
tolerances: {toldff: 5.00E-05, }
...

     iter   Etot(hartree)      deltaE(h)  residm     vres2    diffor    maxfor
 ETOT  1  -1.1666127244484    -1.167E+00 2.095E-12 1.087E+01 1.947E-03 2.982E-04
 ETOT  2  -1.1666128101159    -8.567E-08 3.717E-14 1.512E-02 3.142E-04 1.605E-05
 ETOT  3  -1.1666128120419    -1.926E-09 2.577E-12 8.797E-05 2.941E-05 4.546E-05
 ETOT  4  -1.1666128120841    -4.219E-11 5.570E-14 5.988E-06 9.675E-07 4.450E-05

 At SCF step    4, forces are converged : 
  for the second time, max diff in force=  9.675E-07 < toldff=  5.000E-05

 Cartesian components of stress tensor (hartree/bohr^3)
  sigma(1 1)=  1.18314624E-06  sigma(3 2)=  0.00000000E+00
  sigma(2 2)=  1.20934285E-06  sigma(3 1)=  0.00000000E+00
  sigma(3 3)=  1.20934285E-06  sigma(2 1)=  0.00000000E+00


--- !ResultsGS
iteration_state: {dtset: 11, itime: 3, icycle: 1, }
comment   : Summary of ground state results
lattice_vectors:
- [ 12.0000000,   0.0000000,   0.0000000, ]
- [  0.0000000,  12.0000000,   0.0000000, ]
- [  0.0000000,   0.0000000,  12.0000000, ]
lattice_lengths: [  12.00000,   12.00000,   12.00000, ]
lattice_angles: [ 90.000,  90.000,  90.000, ] # degrees, (23, 13, 12)
lattice_volume:   1.7280000E+03
convergence: {deltae: -4.219E-11, res2:  5.988E-06, residm:  5.570E-14, diffor:  9.675E-07, }
etotal    :  -1.16661281E+00
entropy   :   0.00000000E+00
fermie    :  -3.76300853E-01
cartesian_stress_tensor: # hartree/bohr^3
- [  1.18314624E-06,   0.00000000E+00,   0.00000000E+00, ]
- [  0.00000000E+00,   1.20934285E-06,   0.00000000E+00, ]
- [  0.00000000E+00,   0.00000000E+00,   1.20934285E-06, ]
pressure_GPa:  -3.5323E-02
xred      :
- [ -5.9034E-02,   0.0000E+00,   0.0000E+00,  H]
- [  5.9034E-02,   0.0000E+00,   0.0000E+00,  H]
cartesian_forces: # hartree/bohr
- [ -4.44970441E-05,  -0.00000000E+00,  -0.00000000E+00, ]
- [  4.44970441E-05,  -0.00000000E+00,  -0.00000000E+00, ]
force_length_stats: {min:   4.44970441E-05, max:   4.44970441E-05, mean:   4.44970441E-05, }
...

 Integrated electronic density in atomic spheres:
 ------------------------------------------------
 Atom  Sphere_radius  Integrated_density
    1        2.00000          1.48648986
    2        2.00000          1.48648986

---OUTPUT-----------------------------------------------------------------------

 Cartesian coordinates (xcart) [bohr]
 -7.08410459121363E-01  0.00000000000000E+00  0.00000000000000E+00
  7.08410459121363E-01  0.00000000000000E+00  0.00000000000000E+00
 Reduced coordinates (xred)
 -5.90342049267802E-02  0.00000000000000E+00  0.00000000000000E+00
  5.90342049267802E-02  0.00000000000000E+00  0.00000000000000E+00
 Cartesian forces (fcart) [Ha/bohr]; max,rms= 4.44970E-05 2.56904E-05 (free atoms)
 -4.44970441128536E-05 -0.00000000000000E+00 -0.00000000000000E+00
  4.44970441128536E-05 -0.00000000000000E+00 -0.00000000000000E+00
 Reduced forces (fred)
  5.33964529354243E-04  0.00000000000000E+00  0.00000000000000E+00
 -5.33964529354243E-04 -0.00000000000000E+00 -0.00000000000000E+00
 Total energy (etotal) [Ha]= -1.16661281208407E+00

 Difference of energy with previous step (new-old):
           Absolute (Ha)=-3.80505E-06
           Relative     =-3.26163E-06

 At Broyd/MD step   3, gradients are converged : 
  max grad (force/stress) = 4.4497E-05 < tolmxf= 5.0000E-04 ha/bohr (free atoms)

================================================================================

 ----iterations are completed or convergence reached----

 Mean square residual over all n,k,spin=   55.695E-15; max=  55.695E-15
 reduced coordinates (array xred) for    2 atoms
      -0.059034204927      0.000000000000      0.000000000000
       0.059034204927      0.000000000000      0.000000000000
 rms dE/dt=  3.0828E-04; max dE/dt=  5.3396E-04; dE/dt below (all hartree)
    1       0.000533964529      0.000000000000      0.000000000000
    2      -0.000533964529      0.000000000000      0.000000000000

 cartesian coordinates (angstrom) at end:
    1     -0.37487466929380     0.00000000000000     0.00000000000000
    2      0.37487466929380     0.00000000000000     0.00000000000000

 cartesian forces (hartree/bohr) at end:
    1     -0.00004449704411    -0.00000000000000    -0.00000000000000
    2      0.00004449704411    -0.00000000000000    -0.00000000000000
 frms,max,avg= 2.5690380E-05 4.4497044E-05   0.000E+00  0.000E+00  0.000E+00 h/b

 cartesian forces (eV/Angstrom) at end:
    1     -0.00228812981424    -0.00000000000000    -0.00000000000000
    2      0.00228812981424    -0.00000000000000    -0.00000000000000
 frms,max,avg= 1.3210524E-03 2.2881298E-03   0.000E+00  0.000E+00  0.000E+00 e/A
 length scales= 12.000000000000 12.000000000000 12.000000000000 bohr
              =  6.350126503080  6.350126503080  6.350126503080 angstroms
 prteigrs : about to open file tbase2_5o_DS11_EIG
 Fermi (or HOMO) energy (hartree) =  -0.37630   Average Vxc (hartree)=  -0.04888
 Eigenvalues (hartree) for nkpt=   1  k points:
 kpt#   1, nband=  1, wtk=  1.00000, kpt=  0.0000  0.0000  0.0000 (reduced coord)
  -0.37630

--- !EnergyTerms
iteration_state     : {dtset: 11, itime: 3, icycle: 1, }
comment             : Components of total free energy in Hartree
kinetic             :  1.10396166122452E+00
hartree             :  8.45078105036807E-01
xc                  : -6.85935539108740E-01
Ewald energy        :  2.35406078490873E-01
psp_core            :  8.38775963219563E-04
local_psp           : -2.46716177729052E+00
non_local_psp       : -1.98800116400238E-01
total_energy        : -1.16661281208407E+00
total_energy_eV     : -3.17451490456138E+01
band_energy         : -7.52601705775082E-01
...

 rms coord change=  4.0465E-04   atom, delta coord (reduced):
     1       -0.000700871593      0.000000000000      0.000000000000
     2        0.000700871593      0.000000000000      0.000000000000

 Cartesian components of stress tensor (hartree/bohr^3)
  sigma(1 1)=  1.18314624E-06  sigma(3 2)=  0.00000000E+00
  sigma(2 2)=  1.20934285E-06  sigma(3 1)=  0.00000000E+00
  sigma(3 3)=  1.20934285E-06  sigma(2 1)=  0.00000000E+00

-Cartesian components of stress tensor (GPa)         [Pressure= -3.5323E-02 GPa]
- sigma(1 1)=  3.48093583E-02  sigma(3 2)=  0.00000000E+00
- sigma(2 2)=  3.55800892E-02  sigma(3 1)=  0.00000000E+00
- sigma(3 3)=  3.55800892E-02  sigma(2 1)=  0.00000000E+00

================================================================================
== DATASET 12 ==================================================================
-   mpi_nproc: 1, omp_nthreads: -1 (-1 if OMP is not activated)


--- !DatasetInfo
iteration_state: {dtset: 12, }
dimensions: {natom: 1, nkpt: 1, mband: 1, nsppol: 2, nspinor: 1, nspden: 2, mpw: 6759, }
cutoff_energies: {ecut:  30.0, pawecutdg:  -1.0, }
electrons: {nelect:   1.00000000E+00, charge:   0.00000000E+00, occopt:   2.00000000E+00, tsmear:   1.00000000E-02, }
meta: {optdriver: 0, ionmov: 0, optcell: 0, iscf: 7, paral_kgb: 0, }
...

 Exchange-correlation functional for the present dataset will be:
  GGA: Perdew-Burke-Ernzerhof functional - ixc=11
 Citation for XC functional:
  J.P.Perdew, K.Burke, M.Ernzerhof, PRL 77, 3865 (1996)

 Real(R)+Recip(G) space primitive vectors, cartesian coordinates (Bohr,Bohr^-1):
 R(1)= 12.0000000  0.0000000  0.0000000  G(1)=  0.0833333  0.0000000  0.0000000
 R(2)=  0.0000000 12.0000000  0.0000000  G(2)=  0.0000000  0.0833333  0.0000000
 R(3)=  0.0000000  0.0000000 12.0000000  G(3)=  0.0000000  0.0000000  0.0833333
 Unit cell volume ucvol=  1.7280000E+03 bohr^3
 Angles (23,13,12)=  9.00000000E+01  9.00000000E+01  9.00000000E+01 degrees

 getcut: wavevector=  0.0000  0.0000  0.0000  ngfft=  60  60  60
         ecut(hartree)=     30.000   => boxcut(ratio)=   2.02789
   3.62351216E-01                                ecore*ucvol(ha*bohr**3)
--------------------------------------------------------------------------------

_setup2: Arith. and geom. avg. npw (full set) are   13517.000   13517.000

================================================================================

--- !BeginCycle
iteration_state: {dtset: 12, }
solver: {iscf: 7, nstep: 10, nline: 4, wfoptalg: 0, }
tolerances: {toldfe: 1.00E-06, }
...

     iter   Etot(hartree)      deltaE(h)  residm     vres2
 ETOT  1 -0.50005189634808    -5.001E-01 2.887E-02 1.528E+02
 ETOT  2 -0.50008158053453    -2.968E-05 8.730E-08 7.116E+00
 ETOT  3 -0.50008214728935    -5.668E-07 2.406E-09 3.339E-01
 ETOT  4 -0.50008222088743    -7.360E-08 3.728E-10 4.705E-02

 At SCF step    4, etot is converged : 
  for the second time, diff in etot=  7.360E-08 < toldfe=  1.000E-06

 Cartesian components of stress tensor (hartree/bohr^3)
  sigma(1 1)=  1.12888473E-06  sigma(3 2)=  0.00000000E+00
  sigma(2 2)=  1.12888473E-06  sigma(3 1)=  0.00000000E+00
  sigma(3 3)=  1.12888473E-06  sigma(2 1)=  0.00000000E+00


--- !ResultsGS
iteration_state: {dtset: 12, }
comment   : Summary of ground state results
lattice_vectors:
- [ 12.0000000,   0.0000000,   0.0000000, ]
- [  0.0000000,  12.0000000,   0.0000000, ]
- [  0.0000000,   0.0000000,  12.0000000, ]
lattice_lengths: [  12.00000,   12.00000,   12.00000, ]
lattice_angles: [ 90.000,  90.000,  90.000, ] # degrees, (23, 13, 12)
lattice_volume:   1.7280000E+03
convergence: {deltae: -7.360E-08, res2:  4.705E-02, residm:  3.728E-10, diffor: null, }
etotal    :  -5.00082221E-01
entropy   :   0.00000000E+00
fermie    :  -2.77458917E-01
cartesian_stress_tensor: # hartree/bohr^3
- [  1.12888473E-06,   0.00000000E+00,   0.00000000E+00, ]
- [  0.00000000E+00,   1.12888473E-06,   0.00000000E+00, ]
- [  0.00000000E+00,   0.00000000E+00,   1.12888473E-06, ]
pressure_GPa:  -3.3213E-02
xred      :
- [  0.0000E+00,   0.0000E+00,   0.0000E+00,  H]
cartesian_forces: # hartree/bohr
- [ -0.00000000E+00,  -0.00000000E+00,  -0.00000000E+00, ]
force_length_stats: {min:   0.00000000E+00, max:   0.00000000E+00, mean:   0.00000000E+00, }
...

 Integrated electronic and magnetization densities in atomic spheres:
 ---------------------------------------------------------------------
 Radius=ratsph(iatom), smearing ratsm=  0.0000. Diff(up-dn)=approximate z local magnetic moment.
 Atom    Radius    up_density   dn_density  Total(up+dn)  Diff(up-dn)
    1   2.00000     0.741356     0.000000      0.741356     0.741356
 ---------------------------------------------------------------------
  Sum:              0.741356     0.000000      0.741356     0.741356
 Total magnetization (from the atomic spheres):             0.741356
 Total magnetization (exact up - dn):                       1.000000
================================================================================

 ----iterations are completed or convergence reached----

 Mean square residual over all n,k,spin=   23.200E-11; max=  37.278E-11
 reduced coordinates (array xred) for    1 atoms
       0.000000000000      0.000000000000      0.000000000000
 rms dE/dt=  0.0000E+00; max dE/dt=  0.0000E+00; dE/dt below (all hartree)
    1       0.000000000000      0.000000000000      0.000000000000

 cartesian coordinates (angstrom) at end:
    1      0.00000000000000     0.00000000000000     0.00000000000000

 cartesian forces (hartree/bohr) at end:
    1     -0.00000000000000    -0.00000000000000    -0.00000000000000
 frms,max,avg= 0.0000000E+00 0.0000000E+00   0.000E+00  0.000E+00  0.000E+00 h/b

 cartesian forces (eV/Angstrom) at end:
    1     -0.00000000000000    -0.00000000000000    -0.00000000000000
 frms,max,avg= 0.0000000E+00 0.0000000E+00   0.000E+00  0.000E+00  0.000E+00 e/A
 length scales= 12.000000000000 12.000000000000 12.000000000000 bohr
              =  6.350126503080  6.350126503080  6.350126503080 angstroms
 prteigrs : about to open file tbase2_5o_DS12_EIG
 Fermi (or HOMO) energy (hartree) =  -0.27746   Average Vxc (hartree)=  -0.01491
 Eigenvalues (hartree) for nkpt=   1  k points, SPIN UP:
 kpt#   1, nband=  1, wtk=  1.00000, kpt=  0.0000  0.0000  0.0000 (reduced coord)
  -0.27746
 Eigenvalues (hartree) for nkpt=   1  k points, SPIN DOWN:
 kpt#   1, nband=  1, wtk=  1.00000, kpt=  0.0000  0.0000  0.0000 (reduced coord)
   0.01460

--- !EnergyTerms
iteration_state     : {dtset: 12, }
comment             : Components of total free energy in Hartree
kinetic             :  4.80763924994329E-01
hartree             :  1.90268267184253E-01
xc                  : -3.05134094612098E-01
Ewald energy        : -1.18220728311694E-01
psp_core            :  2.09693990804891E-04
local_psp           : -6.79524766239046E-01
non_local_psp       : -6.84445178939735E-02
total_energy        : -5.00082220887425E-01
total_energy_eV     : -1.36079292741290E+01
band_energy         : -2.77458916879622E-01
...


 Cartesian components of stress tensor (hartree/bohr^3)
  sigma(1 1)=  1.12888473E-06  sigma(3 2)=  0.00000000E+00
  sigma(2 2)=  1.12888473E-06  sigma(3 1)=  0.00000000E+00
  sigma(3 3)=  1.12888473E-06  sigma(2 1)=  0.00000000E+00

-Cartesian components of stress tensor (GPa)         [Pressure= -3.3213E-02 GPa]
- sigma(1 1)=  3.32129299E-02  sigma(3 2)=  0.00000000E+00
- sigma(2 2)=  3.32129299E-02  sigma(3 1)=  0.00000000E+00
- sigma(3 3)=  3.32129299E-02  sigma(2 1)=  0.00000000E+00

== END DATASET(S) ==============================================================
================================================================================
  
 -outvars: echo values of variables after computation  --------
            acell      1.2000000000E+01  1.2000000000E+01  1.2000000000E+01 Bohr
              amu      1.00794000E+00
        bs_loband11         0
        bs_loband12         0       0
           diemac      2.00000000E+00
             ecut      3.00000000E+01 Hartree
           etotal11   -1.1666128121E+00
           etotal12   -5.0008222089E-01
            fcart11   -4.4497044113E-05 -0.0000000000E+00 -0.0000000000E+00
                       4.4497044113E-05 -0.0000000000E+00 -0.0000000000E+00
            fcart12   -0.0000000000E+00 -0.0000000000E+00 -0.0000000000E+00
-          fftalg         312
           ionmov11         2
           ionmov12         0
           istwfk        2
              ixc          11
           jdtset       11   12
           kptopt           0
P           mkmem           1
            natom11         2
            natom12         1
            nband11         1
            nband12         1       1
           ndtset           2
            ngfft          60      60      60
             nkpt           1
           nspden11         1
           nspden12         2
           nsppol11         1
           nsppol12         2
            nstep          10
             nsym11        16
             nsym12        48
            ntime11        10
            ntime12         1
           ntypat           1
              occ11    2.000000
              occ12    1.000000
                       0.000000
           occopt11         1
           occopt12         2
        optforces11         1
        optforces12         2
          spgroup11       123
          spgroup12       221
           spinat12    0.0000000000E+00  0.0000000000E+00  1.0000000000E+00
           strten11    1.1831462393E-06  1.2093428534E-06  1.2093428534E-06
                       0.0000000000E+00  0.0000000000E+00  0.0000000000E+00
           strten12    1.1288847305E-06  1.1288847305E-06  1.1288847305E-06
                       0.0000000000E+00  0.0000000000E+00  0.0000000000E+00
           symafm11      1    1    1    1    1    1    1    1    1    1
                         1    1    1    1    1    1
           symafm12      1    1    1    1    1    1    1    1    1    1
                         1    1    1    1    1    1    1    1    1    1
                         1    1    1    1    1    1    1    1    1    1
                         1    1    1    1    1    1    1    1    1    1
                         1    1    1    1    1    1    1    1
           symrel11    1  0  0   0  1  0   0  0  1      -1  0  0   0 -1  0   0  0 -1
                      -1  0  0   0  1  0   0  0 -1       1  0  0   0 -1  0   0  0  1
                      -1  0  0   0 -1  0   0  0  1       1  0  0   0  1  0   0  0 -1
                       1  0  0   0 -1  0   0  0 -1      -1  0  0   0  1  0   0  0  1
                       1  0  0   0  0  1   0  1  0      -1  0  0   0  0 -1   0 -1  0
                      -1  0  0   0  0  1   0 -1  0       1  0  0   0  0 -1   0  1  0
                      -1  0  0   0  0 -1   0  1  0       1  0  0   0  0  1   0 -1  0
                       1  0  0   0  0 -1   0 -1  0      -1  0  0   0  0  1   0  1  0
           symrel12    1  0  0   0  1  0   0  0  1      -1  0  0   0 -1  0   0  0 -1
                      -1  0  0   0  1  0   0  0 -1       1  0  0   0 -1  0   0  0  1
                      -1  0  0   0 -1  0   0  0  1       1  0  0   0  1  0   0  0 -1
                       1  0  0   0 -1  0   0  0 -1      -1  0  0   0  1  0   0  0  1
                       0  1  0   1  0  0   0  0  1       0 -1  0  -1  0  0   0  0 -1
                       0 -1  0   1  0  0   0  0 -1       0  1  0  -1  0  0   0  0  1
                       0 -1  0  -1  0  0   0  0  1       0  1  0   1  0  0   0  0 -1
                       0  1  0  -1  0  0   0  0 -1       0 -1  0   1  0  0   0  0  1
                       0  0  1   1  0  0   0  1  0       0  0 -1  -1  0  0   0 -1  0
                       0  0 -1   1  0  0   0 -1  0       0  0  1  -1  0  0   0  1  0
                       0  0 -1  -1  0  0   0  1  0       0  0  1   1  0  0   0 -1  0
                       0  0  1  -1  0  0   0 -1  0       0  0 -1   1  0  0   0  1  0
                       1  0  0   0  0  1   0  1  0      -1  0  0   0  0 -1   0 -1  0
                      -1  0  0   0  0  1   0 -1  0       1  0  0   0  0 -1   0  1  0
                      -1  0  0   0  0 -1   0  1  0       1  0  0   0  0  1   0 -1  0
                       1  0  0   0  0 -1   0 -1  0      -1  0  0   0  0  1   0  1  0
                       0  1  0   0  0  1   1  0  0       0 -1  0   0  0 -1  -1  0  0
                       0 -1  0   0  0  1  -1  0  0       0  1  0   0  0 -1   1  0  0
                       0 -1  0   0  0 -1   1  0  0       0  1  0   0  0  1  -1  0  0
                       0  1  0   0  0 -1  -1  0  0       0 -1  0   0  0  1   1  0  0
                       0  0  1   0  1  0   1  0  0       0  0 -1   0 -1  0  -1  0  0
                       0  0 -1   0  1  0  -1  0  0       0  0  1   0 -1  0   1  0  0
                       0  0 -1   0 -1  0   1  0  0       0  0  1   0  1  0  -1  0  0
                       0  0  1   0 -1  0  -1  0  0       0  0 -1   0  1  0   1  0  0
            tnons11    0.0000000  0.0000000  0.0000000     0.0000000  0.0000000  0.0000000
                       0.0000000  0.0000000  0.0000000     0.0000000  0.0000000  0.0000000
                       0.0000000  0.0000000  0.0000000     0.0000000  0.0000000  0.0000000
                       0.0000000  0.0000000  0.0000000     0.0000000  0.0000000  0.0000000
                       0.0000000  0.0000000  0.0000000     0.0000000  0.0000000  0.0000000
                       0.0000000  0.0000000  0.0000000     0.0000000  0.0000000  0.0000000
                       0.0000000  0.0000000  0.0000000     0.0000000  0.0000000  0.0000000
                       0.0000000  0.0000000  0.0000000     0.0000000  0.0000000  0.0000000
            tnons12    0.0000000  0.0000000  0.0000000     0.0000000  0.0000000  0.0000000
                       0.0000000  0.0000000  0.0000000     0.0000000  0.0000000  0.0000000
                       0.0000000  0.0000000  0.0000000     0.0000000  0.0000000  0.0000000
                       0.0000000  0.0000000  0.0000000     0.0000000  0.0000000  0.0000000
                       0.0000000  0.0000000  0.0000000     0.0000000  0.0000000  0.0000000
                       0.0000000  0.0000000  0.0000000     0.0000000  0.0000000  0.0000000
                       0.0000000  0.0000000  0.0000000     0.0000000  0.0000000  0.0000000
                       0.0000000  0.0000000  0.0000000     0.0000000  0.0000000  0.0000000
                       0.0000000  0.0000000  0.0000000     0.0000000  0.0000000  0.0000000
                       0.0000000  0.0000000  0.0000000     0.0000000  0.0000000  0.0000000
                       0.0000000  0.0000000  0.0000000     0.0000000  0.0000000  0.0000000
                       0.0000000  0.0000000  0.0000000     0.0000000  0.0000000  0.0000000
                       0.0000000  0.0000000  0.0000000     0.0000000  0.0000000  0.0000000
                       0.0000000  0.0000000  0.0000000     0.0000000  0.0000000  0.0000000
                       0.0000000  0.0000000  0.0000000     0.0000000  0.0000000  0.0000000
                       0.0000000  0.0000000  0.0000000     0.0000000  0.0000000  0.0000000
                       0.0000000  0.0000000  0.0000000     0.0000000  0.0000000  0.0000000
                       0.0000000  0.0000000  0.0000000     0.0000000  0.0000000  0.0000000
                       0.0000000  0.0000000  0.0000000     0.0000000  0.0000000  0.0000000
                       0.0000000  0.0000000  0.0000000     0.0000000  0.0000000  0.0000000
                       0.0000000  0.0000000  0.0000000     0.0000000  0.0000000  0.0000000
                       0.0000000  0.0000000  0.0000000     0.0000000  0.0000000  0.0000000
                       0.0000000  0.0000000  0.0000000     0.0000000  0.0000000  0.0000000
                       0.0000000  0.0000000  0.0000000     0.0000000  0.0000000  0.0000000
           toldfe11    0.00000000E+00 Hartree
           toldfe12    1.00000000E-06 Hartree
           toldff11    5.00000000E-05
           toldff12    0.00000000E+00
           tolmxf11    5.00000000E-04
           tolmxf12    5.00000000E-05
            typat11    1  1
            typat12    1
           xangst11   -3.7487466929E-01  0.0000000000E+00  0.0000000000E+00
                       3.7487466929E-01  0.0000000000E+00  0.0000000000E+00
           xangst12    0.0000000000E+00  0.0000000000E+00  0.0000000000E+00
            xcart11   -7.0841045912E-01  0.0000000000E+00  0.0000000000E+00
                       7.0841045912E-01  0.0000000000E+00  0.0000000000E+00
            xcart12    0.0000000000E+00  0.0000000000E+00  0.0000000000E+00
             xred11   -5.9034204927E-02  0.0000000000E+00  0.0000000000E+00
                       5.9034204927E-02  0.0000000000E+00  0.0000000000E+00
             xred12    0.0000000000E+00  0.0000000000E+00  0.0000000000E+00
            znucl        1.00000

================================================================================

- Total cpu        time (s,m,h):          4.2        0.07      0.001
- Total wall clock time (s,m,h):          4.2        0.07      0.001
-
- For major independent code sections, cpu and wall times (sec),
-  as well as % of the time and number of calls for node 0-
-<BEGIN_TIMER mpi_nprocs = 1, omp_nthreads = 1, mpi_rank = 0>
- cpu_time =            4.2, wall_time =            4.2
-
- routine                        cpu     %       wall     %      number of calls  Gflops    Speedup Efficacity
-                                                                  (-1=no count)
- xc:pot/=fourdp                 1.073  25.6      1.079  25.6             24      -1.00        0.99       0.99
- fourdp                         0.945  22.5      0.952  22.6            351      -1.00        0.99       0.99
- fourwf%(pot)                   0.372   8.9      0.388   9.2            159      -1.00        0.96       0.96
- stress                         0.194   4.6      0.195   4.6              4      -1.00        1.00       1.00
- ewald                          0.191   4.6      0.192   4.6              4      -1.00        1.00       1.00
- symrhg(no FFT)                 0.163   3.9      0.165   3.9             28      -1.00        0.99       0.99
- timing timab                   0.140   3.3      0.140   3.3             11      -1.00        1.00       1.00
- forces                         0.140   3.3      0.142   3.4             17      -1.00        0.98       0.98
- ewald2 (+vdw_dftd)             0.123   2.9      0.124   2.9              4      -1.00        0.99       0.99
- invars2                        0.064   1.5      0.064   1.5              2      -1.00        1.00       1.00
- pspini                         0.053   1.3      0.053   1.3              2      -1.00        0.99       0.99
- nonlop(apply)                  0.047   1.1      0.046   1.1            159      -1.00        1.03       1.03
- fourwf%(den)                   0.028   0.7      0.025   0.6             20      -1.00        1.12       1.12
- setsym                         0.023   0.6      0.024   0.6              2      -1.00        0.97       0.97
- others (115)                   0.062   1.5      0.069   1.6             -1      -1.00        0.90       0.90
-<END_TIMER>
-
- subtotal                       3.620  86.3      3.658  86.7                                  0.99       0.99

- For major independent code sections, cpu and wall times (sec),
- as well as % of the total time and number of calls 

-<BEGIN_TIMER mpi_nprocs = 1, omp_nthreads = 1, mpi_rank = world>
- cpu_time =           4.2, wall_time =           4.2
-
- routine                         cpu     %       wall     %      number of calls Gflops    Speedup Efficacity
-                                                                  (-1=no count)
- xc:pot/=fourdp                 1.073  25.6      1.079  25.6             24      -1.00        0.99       0.99
- fourdp                         0.945  22.5      0.952  22.6            351      -1.00        0.99       0.99
- fourwf%(pot)                   0.372   8.9      0.388   9.2            159      -1.00        0.96       0.96
- stress                         0.194   4.6      0.195   4.6              4      -1.00        1.00       1.00
- ewald                          0.191   4.6      0.192   4.6              4      -1.00        1.00       1.00
- symrhg(no FFT)                 0.163   3.9      0.165   3.9             28      -1.00        0.99       0.99
- timing timab                   0.140   3.3      0.140   3.3             11      -1.00        1.00       1.00
- forces                         0.140   3.3      0.142   3.4             17      -1.00        0.98       0.98
- ewald2 (+vdw_dftd)             0.123   2.9      0.124   2.9              4      -1.00        0.99       0.99
- invars2                        0.064   1.5      0.064   1.5              2      -1.00        1.00       1.00
- pspini                         0.053   1.3      0.053   1.3              2      -1.00        0.99       0.99
- nonlop(apply)                  0.047   1.1      0.046   1.1            159      -1.00        1.03       1.03
- fourwf%(den)                   0.028   0.7      0.025   0.6             20      -1.00        1.12       1.12
- setsym                         0.023   0.6      0.024   0.6              2      -1.00        0.97       0.97
- others (115)                   0.062   1.5      0.069   1.6             -1      -1.00        0.90       0.90
-<END_TIMER>

- subtotal                       3.620  86.3      3.658  86.7                                  0.99       0.99

================================================================================

 Suggested references for the acknowledgment of ABINIT usage.

 The users of ABINIT have little formal obligations with respect to the ABINIT group
 (those specified in the GNU General Public License, http://www.gnu.org/copyleft/gpl.txt).
 However, it is common practice in the scientific literature,
 to acknowledge the efforts of people that have made the research possible.
 In this spirit, please find below suggested citations of work written by ABINIT developers,
 corresponding to implementations inside of ABINIT that you have used in the present run.
 Note also that it will be of great value to readers of publications presenting these results,
 to read papers enabling them to understand the theoretical formalism and details
 of the ABINIT implementation.
 For information on why they are suggested, see also https://docs.abinit.org/theory/acknowledgments.
-
- [1] The Abinit project: Impact, environment and recent developments.
- Computer Phys. Comm. 248, 107042 (2020).
- X.Gonze, B. Amadon, G. Antonius, F.Arnardi, L.Baguet, J.-M.Beuken,
- J.Bieder, F.Bottin, J.Bouchet, E.Bousquet, N.Brouwer, F.Bruneval,
- G.Brunin, T.Cavignac, J.-B. Charraud, Wei Chen, M.Cote, S.Cottenier,
- J.Denier, G.Geneste, Ph.Ghosez, M.Giantomassi, Y.Gillet, O.Gingras,
- D.R.Hamann, G.Hautier, Xu He, N.Helbig, N.Holzwarth, Y.Jia, F.Jollet,
- W.Lafargue-Dit-Hauret, K.Lejaeghere, M.A.L.Marques, A.Martin, C.Martins,
- H.P.C. Miranda, F.Naccarato, K. Persson, G.Petretto, V.Planes, Y.Pouillon,
- S.Prokhorenko, F.Ricci, G.-M.Rignanese, A.H.Romero, M.M.Schmitt, M.Torrent,
- M.J.van Setten, B.Van Troeye, M.J.Verstraete, G.Zerah and J.W.Zwanzig
- Comment: the fifth generic paper describing the ABINIT project.
- Note that a version of this paper, that is not formatted for Computer Phys. Comm. 
- is available at https://www.abinit.org/sites/default/files/ABINIT20.pdf .
- The licence allows the authors to put it on the Web.
- DOI and bibtex: see https://docs.abinit.org/theory/bibliography/#gonze2020
-
- [2] Optimized norm-conserving Vanderbilt pseudopotentials.
- D.R. Hamann, Phys. Rev. B 88, 085117 (2013).
- Comment: Some pseudopotential generated using the ONCVPSP code were used.
- DOI and bibtex: see https://docs.abinit.org/theory/bibliography/#hamann2013
-
- [3] ABINIT: Overview, and focus on selected capabilities
- J. Chem. Phys. 152, 124102 (2020).
- A. Romero, D.C. Allan, B. Amadon, G. Antonius, T. Applencourt, L.Baguet,
- J.Bieder, F.Bottin, J.Bouchet, E.Bousquet, F.Bruneval,
- G.Brunin, D.Caliste, M.Cote,
- J.Denier, C. Dreyer, Ph.Ghosez, M.Giantomassi, Y.Gillet, O.Gingras,
- D.R.Hamann, G.Hautier, F.Jollet, G. Jomard,
- A.Martin, 
- H.P.C. Miranda, F.Naccarato, G.Petretto, N.A. Pike, V.Planes,
- S.Prokhorenko, T. Rangel, F.Ricci, G.-M.Rignanese, M.Royo, M.Stengel, M.Torrent,
- M.J.van Setten, B.Van Troeye, M.J.Verstraete, J.Wiktor, J.W.Zwanziger, and X.Gonze.
- Comment: a global overview of ABINIT, with focus on selected capabilities .
- Note that a version of this paper, that is not formatted for J. Chem. Phys 
- is available at https://www.abinit.org/sites/default/files/ABINIT20_JPC.pdf .
- The licence allows the authors to put it on the Web.
- DOI and bibtex: see https://docs.abinit.org/theory/bibliography/#romero2020
-
- [4] Recent developments in the ABINIT software package.
- Computer Phys. Comm. 205, 106 (2016).
- X.Gonze, F.Jollet, F.Abreu Araujo, D.Adams, B.Amadon, T.Applencourt,
- C.Audouze, J.-M.Beuken, J.Bieder, A.Bokhanchuk, E.Bousquet, F.Bruneval
- D.Caliste, M.Cote, F.Dahm, F.Da Pieve, M.Delaveau, M.Di Gennaro,
- B.Dorado, C.Espejo, G.Geneste, L.Genovese, A.Gerossier, M.Giantomassi,
- Y.Gillet, D.R.Hamann, L.He, G.Jomard, J.Laflamme Janssen, S.Le Roux,
- A.Levitt, A.Lherbier, F.Liu, I.Lukacevic, A.Martin, C.Martins,
- M.J.T.Oliveira, S.Ponce, Y.Pouillon, T.Rangel, G.-M.Rignanese,
- A.H.Romero, B.Rousseau, O.Rubel, A.A.Shukri, M.Stankovski, M.Torrent,
- M.J.Van Setten, B.Van Troeye, M.J.Verstraete, D.Waroquier, J.Wiktor,
- B.Xu, A.Zhou, J.W.Zwanziger.
- Comment: the fourth generic paper describing the ABINIT project.
- Note that a version of this paper, that is not formatted for Computer Phys. Comm. 
- is available at https://www.abinit.org/sites/default/files/ABINIT16.pdf .
- The licence allows the authors to put it on the Web.
- DOI and bibtex: see https://docs.abinit.org/theory/bibliography/#gonze2016
-
- And optionally:
-
- [5] ABINIT: First-principles approach of materials and nanosystem properties.
- Computer Phys. Comm. 180, 2582-2615 (2009).
- X. Gonze, B. Amadon, P.-M. Anglade, J.-M. Beuken, F. Bottin, P. Boulanger, F. Bruneval,
- D. Caliste, R. Caracas, M. Cote, T. Deutsch, L. Genovese, Ph. Ghosez, M. Giantomassi
- S. Goedecker, D.R. Hamann, P. Hermet, F. Jollet, G. Jomard, S. Leroux, M. Mancini, S. Mazevet,
- M.J.T. Oliveira, G. Onida, Y. Pouillon, T. Rangel, G.-M. Rignanese, D. Sangalli, R. Shaltaf,
- M. Torrent, M.J. Verstraete, G. Zerah, J.W. Zwanziger
- Comment: the third generic paper describing the ABINIT project.
- Note that a version of this paper, that is not formatted for Computer Phys. Comm. 
- is available at https://www.abinit.org/sites/default/files/ABINIT_CPC_v10.pdf .
- The licence allows the authors to put it on the Web.
- DOI and bibtex: see https://docs.abinit.org/theory/bibliography/#gonze2009
-
- Proc.   0 individual time (sec): cpu=          4.2  wall=          4.2

================================================================================

 Calculation completed.
.Delivered   9 WARNINGs and   3 COMMENTs to log file.
+Overall time at end (sec) : cpu=          4.2  wall=          4.2
