
.Version 10.1.4.5 of ABINIT, released Sep 2024.
.(MPI version, prepared for a x86_64_linux_gnu13.2 computer) 

.Copyright (C) 1998-2025 ABINIT group . 
 ABINIT comes with ABSOLUTELY NO WARRANTY.
 It is free software, and you are welcome to redistribute it
 under certain conditions (GNU General Public License,
 see ~abinit/COPYING or http://www.gnu.org/copyleft/gpl.txt).

 ABINIT is a project of the Universite Catholique de Louvain,
 Corning Inc. and other collaborators, see ~abinit/doc/developers/contributors.txt .
 Please read https://docs.abinit.org/theory/acknowledgments for suggested
 acknowledgments of the ABINIT effort.
 For more information, see https://www.abinit.org .

.Starting date : Fri 13 Sep 2024.
- ( at 19h05 )
  
- input  file    -> /home/buildbot/ABINIT3/eos_gnu_13.2_mpich/trunk_merge-10.0/tests/TestBot_MPI1/tutorial_tbase2_3/tbase2_3.abi
- output file    -> tbase2_3.abo
- root for input  files -> tbase2_3i
- root for output files -> tbase2_3o

 DATASET   11 : space group P4/m m m (#123); Bravais tP (primitive tetrag.)
================================================================================
 Values of the parameters that define the memory need for DATASET 11.
     intxc =       0    ionmov =       2      iscf =       7    lmnmax =       3
     lnmax =       3     mgfft =      24  mpssoang =       2    mqgrid =    3001
     natom =       2  nloc_mem =       1    nspden =       1   nspinor =       1
    nsppol =       1      nsym =      16    n1xccc =       0    ntypat =       1
    occopt =       1   xclevel =       1
-    mband =           1        mffmem =           1         mkmem =           1
       mpw =         376          nfft =       13824          nkpt =           1
================================================================================
P This job should need less than                       4.690 Mbytes of memory.
  Rough estimation (10% accuracy) of disk space for files :
_ WF disk file :      0.008 Mbytes ; DEN or POT disk file :      0.107 Mbytes.
================================================================================

 DATASET   12 : space group Pm -3 m (#221); Bravais cP (primitive cubic)
================================================================================
 Values of the parameters that define the memory need for DATASET 12.
     intxc =       0    ionmov =       0      iscf =       7    lmnmax =       3
     lnmax =       3     mgfft =      24  mpssoang =       2    mqgrid =    3001
     natom =       1  nloc_mem =       1    nspden =       2   nspinor =       1
    nsppol =       2      nsym =      48    n1xccc =       0    ntypat =       1
    occopt =       2   xclevel =       1
-    mband =           1        mffmem =           1         mkmem =           1
       mpw =         376          nfft =       13824          nkpt =           1
================================================================================
P This job should need less than                       6.791 Mbytes of memory.
  Rough estimation (10% accuracy) of disk space for files :
_ WF disk file :      0.013 Mbytes ; DEN or POT disk file :      0.213 Mbytes.
================================================================================

 DATASET   21 : space group P4/m m m (#123); Bravais tP (primitive tetrag.)
================================================================================
 Values of the parameters that define the memory need for DATASET 21.
     intxc =       0    ionmov =       2      iscf =       7    lmnmax =       3
     lnmax =       3     mgfft =      30  mpssoang =       2    mqgrid =    3001
     natom =       2  nloc_mem =       1    nspden =       1   nspinor =       1
    nsppol =       1      nsym =      16    n1xccc =       0    ntypat =       1
    occopt =       1   xclevel =       1
-    mband =           1        mffmem =           1         mkmem =           1
       mpw =         752          nfft =       27000          nkpt =           1
================================================================================
P This job should need less than                       8.700 Mbytes of memory.
  Rough estimation (10% accuracy) of disk space for files :
_ WF disk file :      0.013 Mbytes ; DEN or POT disk file :      0.208 Mbytes.
================================================================================

 DATASET   22 : space group Pm -3 m (#221); Bravais cP (primitive cubic)
================================================================================
 Values of the parameters that define the memory need for DATASET 22.
     intxc =       0    ionmov =       0      iscf =       7    lmnmax =       3
     lnmax =       3     mgfft =      30  mpssoang =       2    mqgrid =    3001
     natom =       1  nloc_mem =       1    nspden =       2   nspinor =       1
    nsppol =       2      nsym =      48    n1xccc =       0    ntypat =       1
    occopt =       2   xclevel =       1
-    mband =           1        mffmem =           1         mkmem =           1
       mpw =         752          nfft =       27000          nkpt =           1
================================================================================
P This job should need less than                      12.812 Mbytes of memory.
  Rough estimation (10% accuracy) of disk space for files :
_ WF disk file :      0.025 Mbytes ; DEN or POT disk file :      0.414 Mbytes.
================================================================================

 DATASET   31 : space group P4/m m m (#123); Bravais tP (primitive tetrag.)
================================================================================
 Values of the parameters that define the memory need for DATASET 31.
     intxc =       0    ionmov =       2      iscf =       7    lmnmax =       3
     lnmax =       3     mgfft =      36  mpssoang =       2    mqgrid =    3001
     natom =       2  nloc_mem =       1    nspden =       1   nspinor =       1
    nsppol =       1      nsym =      16    n1xccc =       0    ntypat =       1
    occopt =       1   xclevel =       1
-    mband =           1        mffmem =           1         mkmem =           1
       mpw =        1277          nfft =       46656          nkpt =           1
================================================================================
P This job should need less than                      14.670 Mbytes of memory.
  Rough estimation (10% accuracy) of disk space for files :
_ WF disk file :      0.021 Mbytes ; DEN or POT disk file :      0.358 Mbytes.
================================================================================

 DATASET   32 : space group Pm -3 m (#221); Bravais cP (primitive cubic)
================================================================================
 Values of the parameters that define the memory need for DATASET 32.
     intxc =       0    ionmov =       0      iscf =       7    lmnmax =       3
     lnmax =       3     mgfft =      36  mpssoang =       2    mqgrid =    3001
     natom =       1  nloc_mem =       1    nspden =       2   nspinor =       1
    nsppol =       2      nsym =      48    n1xccc =       0    ntypat =       1
    occopt =       2   xclevel =       1
-    mband =           1        mffmem =           1         mkmem =           1
       mpw =        1277          nfft =       46656          nkpt =           1
================================================================================
P This job should need less than                      21.780 Mbytes of memory.
  Rough estimation (10% accuracy) of disk space for files :
_ WF disk file :      0.041 Mbytes ; DEN or POT disk file :      0.714 Mbytes.
================================================================================

 DATASET   41 : space group P4/m m m (#123); Bravais tP (primitive tetrag.)
================================================================================
 Values of the parameters that define the memory need for DATASET 41.
     intxc =       0    ionmov =       2      iscf =       7    lmnmax =       3
     lnmax =       3     mgfft =      40  mpssoang =       2    mqgrid =    3001
     natom =       2  nloc_mem =       1    nspden =       1   nspinor =       1
    nsppol =       1      nsym =      16    n1xccc =       0    ntypat =       1
    occopt =       1   xclevel =       1
-    mband =           1        mffmem =           1         mkmem =           1
       mpw =        2070          nfft =       64000          nkpt =           1
================================================================================
P This job should need less than                      19.996 Mbytes of memory.
  Rough estimation (10% accuracy) of disk space for files :
_ WF disk file :      0.034 Mbytes ; DEN or POT disk file :      0.490 Mbytes.
================================================================================

 DATASET   42 : space group Pm -3 m (#221); Bravais cP (primitive cubic)
================================================================================
 Values of the parameters that define the memory need for DATASET 42.
     intxc =       0    ionmov =       0      iscf =       7    lmnmax =       3
     lnmax =       3     mgfft =      40  mpssoang =       2    mqgrid =    3001
     natom =       1  nloc_mem =       1    nspden =       2   nspinor =       1
    nsppol =       2      nsym =      48    n1xccc =       0    ntypat =       1
    occopt =       2   xclevel =       1
-    mband =           1        mffmem =           1         mkmem =           1
       mpw =        2070          nfft =       64000          nkpt =           1
================================================================================
P This job should need less than                      29.752 Mbytes of memory.
  Rough estimation (10% accuracy) of disk space for files :
_ WF disk file :      0.065 Mbytes ; DEN or POT disk file :      0.979 Mbytes.
================================================================================

 DATASET   51 : space group P4/m m m (#123); Bravais tP (primitive tetrag.)
================================================================================
 Values of the parameters that define the memory need for DATASET 51.
     intxc =       0    ionmov =       2      iscf =       7    lmnmax =       3
     lnmax =       3     mgfft =      48  mpssoang =       2    mqgrid =    3001
     natom =       2  nloc_mem =       1    nspden =       1   nspinor =       1
    nsppol =       1      nsym =      16    n1xccc =       0    ntypat =       1
    occopt =       1   xclevel =       1
-    mband =           1        mffmem =           1         mkmem =           1
       mpw =        3094          nfft =      110592          nkpt =           1
================================================================================
P This job should need less than                      34.091 Mbytes of memory.
  Rough estimation (10% accuracy) of disk space for files :
_ WF disk file :      0.049 Mbytes ; DEN or POT disk file :      0.846 Mbytes.
================================================================================

 DATASET   52 : space group Pm -3 m (#221); Bravais cP (primitive cubic)
================================================================================
 Values of the parameters that define the memory need for DATASET 52.
     intxc =       0    ionmov =       0      iscf =       7    lmnmax =       3
     lnmax =       3     mgfft =      48  mpssoang =       2    mqgrid =    3001
     natom =       1  nloc_mem =       1    nspden =       2   nspinor =       1
    nsppol =       2      nsym =      48    n1xccc =       0    ntypat =       1
    occopt =       2   xclevel =       1
-    mband =           1        mffmem =           1         mkmem =           1
       mpw =        3094          nfft =      110592          nkpt =           1
================================================================================
P This job should need less than                      50.956 Mbytes of memory.
  Rough estimation (10% accuracy) of disk space for files :
_ WF disk file :      0.096 Mbytes ; DEN or POT disk file :      1.690 Mbytes.
================================================================================

 DATASET   61 : space group P4/m m m (#123); Bravais tP (primitive tetrag.)
================================================================================
 Values of the parameters that define the memory need for DATASET 61.
     intxc =       0    ionmov =       2      iscf =       7    lmnmax =       3
     lnmax =       3     mgfft =      54  mpssoang =       2    mqgrid =    3001
     natom =       2  nloc_mem =       1    nspden =       1   nspinor =       1
    nsppol =       1      nsym =      16    n1xccc =       0    ntypat =       1
    occopt =       1   xclevel =       1
-    mband =           1        mffmem =           1         mkmem =           1
       mpw =        4415          nfft =      157464          nkpt =           1
================================================================================
P This job should need less than                      48.318 Mbytes of memory.
  Rough estimation (10% accuracy) of disk space for files :
_ WF disk file :      0.069 Mbytes ; DEN or POT disk file :      1.203 Mbytes.
================================================================================

 DATASET   62 : space group Pm -3 m (#221); Bravais cP (primitive cubic)
================================================================================
 Values of the parameters that define the memory need for DATASET 62.
     intxc =       0    ionmov =       0      iscf =       7    lmnmax =       3
     lnmax =       3     mgfft =      54  mpssoang =       2    mqgrid =    3001
     natom =       1  nloc_mem =       1    nspden =       2   nspinor =       1
    nsppol =       2      nsym =      48    n1xccc =       0    ntypat =       1
    occopt =       2   xclevel =       1
-    mband =           1        mffmem =           1         mkmem =           1
       mpw =        4415          nfft =      157464          nkpt =           1
================================================================================
P This job should need less than                      72.335 Mbytes of memory.
  Rough estimation (10% accuracy) of disk space for files :
_ WF disk file :      0.137 Mbytes ; DEN or POT disk file :      2.405 Mbytes.
================================================================================

--------------------------------------------------------------------------------
------------- Echo of variables that govern the present computation ------------
--------------------------------------------------------------------------------
-
- outvars: echo of selected default values
-   iomode0 =  0 , fftalg0 =512 , wfoptalg0 =  0
-
- outvars: echo of global parameters not present in the input file
-  max_nthreads =    0
-
 -outvars: echo values of preprocessed input variables --------
            acell11    8.0000000000E+00  8.0000000000E+00  8.0000000000E+00 Bohr
            acell12    8.0000000000E+00  8.0000000000E+00  8.0000000000E+00 Bohr
            acell21    1.0000000000E+01  1.0000000000E+01  1.0000000000E+01 Bohr
            acell22    1.0000000000E+01  1.0000000000E+01  1.0000000000E+01 Bohr
            acell31    1.2000000000E+01  1.2000000000E+01  1.2000000000E+01 Bohr
            acell32    1.2000000000E+01  1.2000000000E+01  1.2000000000E+01 Bohr
            acell41    1.4000000000E+01  1.4000000000E+01  1.4000000000E+01 Bohr
            acell42    1.4000000000E+01  1.4000000000E+01  1.4000000000E+01 Bohr
            acell51    1.6000000000E+01  1.6000000000E+01  1.6000000000E+01 Bohr
            acell52    1.6000000000E+01  1.6000000000E+01  1.6000000000E+01 Bohr
            acell61    1.8000000000E+01  1.8000000000E+01  1.8000000000E+01 Bohr
            acell62    1.8000000000E+01  1.8000000000E+01  1.8000000000E+01 Bohr
              amu      1.00794000E+00
        bs_loband11         0
        bs_loband12         0       0
        bs_loband21         0
        bs_loband22         0       0
        bs_loband31         0
        bs_loband32         0       0
        bs_loband41         0
        bs_loband42         0       0
        bs_loband51         0
        bs_loband52         0       0
        bs_loband61         0
        bs_loband62         0       0
           diemac      2.00000000E+00
             ecut      1.00000000E+01 Hartree
-          fftalg         512
           ionmov11         2
           ionmov12         0
           ionmov21         2
           ionmov22         0
           ionmov31         2
           ionmov32         0
           ionmov41         2
           ionmov42         0
           ionmov51         2
           ionmov52         0
           ionmov61         2
           ionmov62         0
           istwfk        2
              ixc       -1012
           jdtset       11   12   21   22   31   32   41   42   51   52
                        61   62
           kptopt           0
P           mkmem           1
            natom11         2
            natom12         1
            natom21         2
            natom22         1
            natom31         2
            natom32         1
            natom41         2
            natom42         1
            natom51         2
            natom52         1
            natom61         2
            natom62         1
            nband11         1
            nband12         1       1
            nband21         1
            nband22         1       1
            nband31         1
            nband32         1       1
            nband41         1
            nband42         1       1
            nband51         1
            nband52         1       1
            nband61         1
            nband62         1       1
           ndtset          12
            ngfft11        24      24      24
            ngfft12        24      24      24
            ngfft21        30      30      30
            ngfft22        30      30      30
            ngfft31        36      36      36
            ngfft32        36      36      36
            ngfft41        40      40      40
            ngfft42        40      40      40
            ngfft51        48      48      48
            ngfft52        48      48      48
            ngfft61        54      54      54
            ngfft62        54      54      54
             nkpt           1
           nspden11         1
           nspden12         2
           nspden21         1
           nspden22         2
           nspden31         1
           nspden32         2
           nspden41         1
           nspden42         2
           nspden51         1
           nspden52         2
           nspden61         1
           nspden62         2
           nsppol11         1
           nsppol12         2
           nsppol21         1
           nsppol22         2
           nsppol31         1
           nsppol32         2
           nsppol41         1
           nsppol42         2
           nsppol51         1
           nsppol52         2
           nsppol61         1
           nsppol62         2
            nstep          10
             nsym11        16
             nsym12        48
             nsym21        16
             nsym22        48
             nsym31        16
             nsym32        48
             nsym41        16
             nsym42        48
             nsym51        16
             nsym52        48
             nsym61        16
             nsym62        48
            ntime11        10
            ntime12         1
            ntime21        10
            ntime22         1
            ntime31        10
            ntime32         1
            ntime41        10
            ntime42         1
            ntime51        10
            ntime52         1
            ntime61        10
            ntime62         1
           ntypat           1
              occ11    2.000000
              occ12    1.000000
                       0.000000
              occ21    2.000000
              occ22    1.000000
                       0.000000
              occ31    2.000000
              occ32    1.000000
                       0.000000
              occ41    2.000000
              occ42    1.000000
                       0.000000
              occ51    2.000000
              occ52    1.000000
                       0.000000
              occ61    2.000000
              occ62    1.000000
                       0.000000
           occopt11         1
           occopt12         2
           occopt21         1
           occopt22         2
           occopt31         1
           occopt32         2
           occopt41         1
           occopt42         2
           occopt51         1
           occopt52         2
           occopt61         1
           occopt62         2
        optforces11         1
        optforces12         2
        optforces21         1
        optforces22         2
        optforces31         1
        optforces32         2
        optforces41         1
        optforces42         2
        optforces51         1
        optforces52         2
        optforces61         1
        optforces62         2
          spgroup11       123
          spgroup12       221
          spgroup21       123
          spgroup22       221
          spgroup31       123
          spgroup32       221
          spgroup41       123
          spgroup42       221
          spgroup51       123
          spgroup52       221
          spgroup61       123
          spgroup62       221
           spinat12    0.0000000000E+00  0.0000000000E+00  1.0000000000E+00
           spinat22    0.0000000000E+00  0.0000000000E+00  1.0000000000E+00
           spinat32    0.0000000000E+00  0.0000000000E+00  1.0000000000E+00
           spinat42    0.0000000000E+00  0.0000000000E+00  1.0000000000E+00
           spinat52    0.0000000000E+00  0.0000000000E+00  1.0000000000E+00
           spinat62    0.0000000000E+00  0.0000000000E+00  1.0000000000E+00
           symafm11      1    1    1    1    1    1    1    1    1    1
                         1    1    1    1    1    1
           symafm12      1    1    1    1    1    1    1    1    1    1
                         1    1    1    1    1    1    1    1    1    1
                         1    1    1    1    1    1    1    1    1    1
                         1    1    1    1    1    1    1    1    1    1
                         1    1    1    1    1    1    1    1
           symafm21      1    1    1    1    1    1    1    1    1    1
                         1    1    1    1    1    1
           symafm22      1    1    1    1    1    1    1    1    1    1
                         1    1    1    1    1    1    1    1    1    1
                         1    1    1    1    1    1    1    1    1    1
                         1    1    1    1    1    1    1    1    1    1
                         1    1    1    1    1    1    1    1
           symafm31      1    1    1    1    1    1    1    1    1    1
                         1    1    1    1    1    1
           symafm32      1    1    1    1    1    1    1    1    1    1
                         1    1    1    1    1    1    1    1    1    1
                         1    1    1    1    1    1    1    1    1    1
                         1    1    1    1    1    1    1    1    1    1
                         1    1    1    1    1    1    1    1
           symafm41      1    1    1    1    1    1    1    1    1    1
                         1    1    1    1    1    1
           symafm42      1    1    1    1    1    1    1    1    1    1
                         1    1    1    1    1    1    1    1    1    1
                         1    1    1    1    1    1    1    1    1    1
                         1    1    1    1    1    1    1    1    1    1
                         1    1    1    1    1    1    1    1
           symafm51      1    1    1    1    1    1    1    1    1    1
                         1    1    1    1    1    1
           symafm52      1    1    1    1    1    1    1    1    1    1
                         1    1    1    1    1    1    1    1    1    1
                         1    1    1    1    1    1    1    1    1    1
                         1    1    1    1    1    1    1    1    1    1
                         1    1    1    1    1    1    1    1
           symafm61      1    1    1    1    1    1    1    1    1    1
                         1    1    1    1    1    1
           symafm62      1    1    1    1    1    1    1    1    1    1
                         1    1    1    1    1    1    1    1    1    1
                         1    1    1    1    1    1    1    1    1    1
                         1    1    1    1    1    1    1    1    1    1
                         1    1    1    1    1    1    1    1
           symrel11    1  0  0   0  1  0   0  0  1      -1  0  0   0 -1  0   0  0 -1
                      -1  0  0   0  1  0   0  0 -1       1  0  0   0 -1  0   0  0  1
                      -1  0  0   0 -1  0   0  0  1       1  0  0   0  1  0   0  0 -1
                       1  0  0   0 -1  0   0  0 -1      -1  0  0   0  1  0   0  0  1
                       1  0  0   0  0  1   0  1  0      -1  0  0   0  0 -1   0 -1  0
                      -1  0  0   0  0  1   0 -1  0       1  0  0   0  0 -1   0  1  0
                      -1  0  0   0  0 -1   0  1  0       1  0  0   0  0  1   0 -1  0
                       1  0  0   0  0 -1   0 -1  0      -1  0  0   0  0  1   0  1  0
           symrel12    1  0  0   0  1  0   0  0  1      -1  0  0   0 -1  0   0  0 -1
                      -1  0  0   0  1  0   0  0 -1       1  0  0   0 -1  0   0  0  1
                      -1  0  0   0 -1  0   0  0  1       1  0  0   0  1  0   0  0 -1
                       1  0  0   0 -1  0   0  0 -1      -1  0  0   0  1  0   0  0  1
                       0  1  0   1  0  0   0  0  1       0 -1  0  -1  0  0   0  0 -1
                       0 -1  0   1  0  0   0  0 -1       0  1  0  -1  0  0   0  0  1
                       0 -1  0  -1  0  0   0  0  1       0  1  0   1  0  0   0  0 -1
                       0  1  0  -1  0  0   0  0 -1       0 -1  0   1  0  0   0  0  1
                       0  0  1   1  0  0   0  1  0       0  0 -1  -1  0  0   0 -1  0
                       0  0 -1   1  0  0   0 -1  0       0  0  1  -1  0  0   0  1  0
                       0  0 -1  -1  0  0   0  1  0       0  0  1   1  0  0   0 -1  0
                       0  0  1  -1  0  0   0 -1  0       0  0 -1   1  0  0   0  1  0
                       1  0  0   0  0  1   0  1  0      -1  0  0   0  0 -1   0 -1  0
                      -1  0  0   0  0  1   0 -1  0       1  0  0   0  0 -1   0  1  0
                      -1  0  0   0  0 -1   0  1  0       1  0  0   0  0  1   0 -1  0
                       1  0  0   0  0 -1   0 -1  0      -1  0  0   0  0  1   0  1  0
                       0  1  0   0  0  1   1  0  0       0 -1  0   0  0 -1  -1  0  0
                       0 -1  0   0  0  1  -1  0  0       0  1  0   0  0 -1   1  0  0
                       0 -1  0   0  0 -1   1  0  0       0  1  0   0  0  1  -1  0  0
                       0  1  0   0  0 -1  -1  0  0       0 -1  0   0  0  1   1  0  0
                       0  0  1   0  1  0   1  0  0       0  0 -1   0 -1  0  -1  0  0
                       0  0 -1   0  1  0  -1  0  0       0  0  1   0 -1  0   1  0  0
                       0  0 -1   0 -1  0   1  0  0       0  0  1   0  1  0  -1  0  0
                       0  0  1   0 -1  0  -1  0  0       0  0 -1   0  1  0   1  0  0
           symrel21    1  0  0   0  1  0   0  0  1      -1  0  0   0 -1  0   0  0 -1
                      -1  0  0   0  1  0   0  0 -1       1  0  0   0 -1  0   0  0  1
                      -1  0  0   0 -1  0   0  0  1       1  0  0   0  1  0   0  0 -1
                       1  0  0   0 -1  0   0  0 -1      -1  0  0   0  1  0   0  0  1
                       1  0  0   0  0  1   0  1  0      -1  0  0   0  0 -1   0 -1  0
                      -1  0  0   0  0  1   0 -1  0       1  0  0   0  0 -1   0  1  0
                      -1  0  0   0  0 -1   0  1  0       1  0  0   0  0  1   0 -1  0
                       1  0  0   0  0 -1   0 -1  0      -1  0  0   0  0  1   0  1  0
           symrel22    1  0  0   0  1  0   0  0  1      -1  0  0   0 -1  0   0  0 -1
                      -1  0  0   0  1  0   0  0 -1       1  0  0   0 -1  0   0  0  1
                      -1  0  0   0 -1  0   0  0  1       1  0  0   0  1  0   0  0 -1
                       1  0  0   0 -1  0   0  0 -1      -1  0  0   0  1  0   0  0  1
                       0  1  0   1  0  0   0  0  1       0 -1  0  -1  0  0   0  0 -1
                       0 -1  0   1  0  0   0  0 -1       0  1  0  -1  0  0   0  0  1
                       0 -1  0  -1  0  0   0  0  1       0  1  0   1  0  0   0  0 -1
                       0  1  0  -1  0  0   0  0 -1       0 -1  0   1  0  0   0  0  1
                       0  0  1   1  0  0   0  1  0       0  0 -1  -1  0  0   0 -1  0
                       0  0 -1   1  0  0   0 -1  0       0  0  1  -1  0  0   0  1  0
                       0  0 -1  -1  0  0   0  1  0       0  0  1   1  0  0   0 -1  0
                       0  0  1  -1  0  0   0 -1  0       0  0 -1   1  0  0   0  1  0
                       1  0  0   0  0  1   0  1  0      -1  0  0   0  0 -1   0 -1  0
                      -1  0  0   0  0  1   0 -1  0       1  0  0   0  0 -1   0  1  0
                      -1  0  0   0  0 -1   0  1  0       1  0  0   0  0  1   0 -1  0
                       1  0  0   0  0 -1   0 -1  0      -1  0  0   0  0  1   0  1  0
                       0  1  0   0  0  1   1  0  0       0 -1  0   0  0 -1  -1  0  0
                       0 -1  0   0  0  1  -1  0  0       0  1  0   0  0 -1   1  0  0
                       0 -1  0   0  0 -1   1  0  0       0  1  0   0  0  1  -1  0  0
                       0  1  0   0  0 -1  -1  0  0       0 -1  0   0  0  1   1  0  0
                       0  0  1   0  1  0   1  0  0       0  0 -1   0 -1  0  -1  0  0
                       0  0 -1   0  1  0  -1  0  0       0  0  1   0 -1  0   1  0  0
                       0  0 -1   0 -1  0   1  0  0       0  0  1   0  1  0  -1  0  0
                       0  0  1   0 -1  0  -1  0  0       0  0 -1   0  1  0   1  0  0
           symrel31    1  0  0   0  1  0   0  0  1      -1  0  0   0 -1  0   0  0 -1
                      -1  0  0   0  1  0   0  0 -1       1  0  0   0 -1  0   0  0  1
                      -1  0  0   0 -1  0   0  0  1       1  0  0   0  1  0   0  0 -1
                       1  0  0   0 -1  0   0  0 -1      -1  0  0   0  1  0   0  0  1
                       1  0  0   0  0  1   0  1  0      -1  0  0   0  0 -1   0 -1  0
                      -1  0  0   0  0  1   0 -1  0       1  0  0   0  0 -1   0  1  0
                      -1  0  0   0  0 -1   0  1  0       1  0  0   0  0  1   0 -1  0
                       1  0  0   0  0 -1   0 -1  0      -1  0  0   0  0  1   0  1  0
           symrel32    1  0  0   0  1  0   0  0  1      -1  0  0   0 -1  0   0  0 -1
                      -1  0  0   0  1  0   0  0 -1       1  0  0   0 -1  0   0  0  1
                      -1  0  0   0 -1  0   0  0  1       1  0  0   0  1  0   0  0 -1
                       1  0  0   0 -1  0   0  0 -1      -1  0  0   0  1  0   0  0  1
                       0  1  0   1  0  0   0  0  1       0 -1  0  -1  0  0   0  0 -1
                       0 -1  0   1  0  0   0  0 -1       0  1  0  -1  0  0   0  0  1
                       0 -1  0  -1  0  0   0  0  1       0  1  0   1  0  0   0  0 -1
                       0  1  0  -1  0  0   0  0 -1       0 -1  0   1  0  0   0  0  1
                       0  0  1   1  0  0   0  1  0       0  0 -1  -1  0  0   0 -1  0
                       0  0 -1   1  0  0   0 -1  0       0  0  1  -1  0  0   0  1  0
                       0  0 -1  -1  0  0   0  1  0       0  0  1   1  0  0   0 -1  0
                       0  0  1  -1  0  0   0 -1  0       0  0 -1   1  0  0   0  1  0
                       1  0  0   0  0  1   0  1  0      -1  0  0   0  0 -1   0 -1  0
                      -1  0  0   0  0  1   0 -1  0       1  0  0   0  0 -1   0  1  0
                      -1  0  0   0  0 -1   0  1  0       1  0  0   0  0  1   0 -1  0
                       1  0  0   0  0 -1   0 -1  0      -1  0  0   0  0  1   0  1  0
                       0  1  0   0  0  1   1  0  0       0 -1  0   0  0 -1  -1  0  0
                       0 -1  0   0  0  1  -1  0  0       0  1  0   0  0 -1   1  0  0
                       0 -1  0   0  0 -1   1  0  0       0  1  0   0  0  1  -1  0  0
                       0  1  0   0  0 -1  -1  0  0       0 -1  0   0  0  1   1  0  0
                       0  0  1   0  1  0   1  0  0       0  0 -1   0 -1  0  -1  0  0
                       0  0 -1   0  1  0  -1  0  0       0  0  1   0 -1  0   1  0  0
                       0  0 -1   0 -1  0   1  0  0       0  0  1   0  1  0  -1  0  0
                       0  0  1   0 -1  0  -1  0  0       0  0 -1   0  1  0   1  0  0
           symrel41    1  0  0   0  1  0   0  0  1      -1  0  0   0 -1  0   0  0 -1
                      -1  0  0   0  1  0   0  0 -1       1  0  0   0 -1  0   0  0  1
                      -1  0  0   0 -1  0   0  0  1       1  0  0   0  1  0   0  0 -1
                       1  0  0   0 -1  0   0  0 -1      -1  0  0   0  1  0   0  0  1
                       1  0  0   0  0  1   0  1  0      -1  0  0   0  0 -1   0 -1  0
                      -1  0  0   0  0  1   0 -1  0       1  0  0   0  0 -1   0  1  0
                      -1  0  0   0  0 -1   0  1  0       1  0  0   0  0  1   0 -1  0
                       1  0  0   0  0 -1   0 -1  0      -1  0  0   0  0  1   0  1  0
           symrel42    1  0  0   0  1  0   0  0  1      -1  0  0   0 -1  0   0  0 -1
                      -1  0  0   0  1  0   0  0 -1       1  0  0   0 -1  0   0  0  1
                      -1  0  0   0 -1  0   0  0  1       1  0  0   0  1  0   0  0 -1
                       1  0  0   0 -1  0   0  0 -1      -1  0  0   0  1  0   0  0  1
                       0  1  0   1  0  0   0  0  1       0 -1  0  -1  0  0   0  0 -1
                       0 -1  0   1  0  0   0  0 -1       0  1  0  -1  0  0   0  0  1
                       0 -1  0  -1  0  0   0  0  1       0  1  0   1  0  0   0  0 -1
                       0  1  0  -1  0  0   0  0 -1       0 -1  0   1  0  0   0  0  1
                       0  0  1   1  0  0   0  1  0       0  0 -1  -1  0  0   0 -1  0
                       0  0 -1   1  0  0   0 -1  0       0  0  1  -1  0  0   0  1  0
                       0  0 -1  -1  0  0   0  1  0       0  0  1   1  0  0   0 -1  0
                       0  0  1  -1  0  0   0 -1  0       0  0 -1   1  0  0   0  1  0
                       1  0  0   0  0  1   0  1  0      -1  0  0   0  0 -1   0 -1  0
                      -1  0  0   0  0  1   0 -1  0       1  0  0   0  0 -1   0  1  0
                      -1  0  0   0  0 -1   0  1  0       1  0  0   0  0  1   0 -1  0
                       1  0  0   0  0 -1   0 -1  0      -1  0  0   0  0  1   0  1  0
                       0  1  0   0  0  1   1  0  0       0 -1  0   0  0 -1  -1  0  0
                       0 -1  0   0  0  1  -1  0  0       0  1  0   0  0 -1   1  0  0
                       0 -1  0   0  0 -1   1  0  0       0  1  0   0  0  1  -1  0  0
                       0  1  0   0  0 -1  -1  0  0       0 -1  0   0  0  1   1  0  0
                       0  0  1   0  1  0   1  0  0       0  0 -1   0 -1  0  -1  0  0
                       0  0 -1   0  1  0  -1  0  0       0  0  1   0 -1  0   1  0  0
                       0  0 -1   0 -1  0   1  0  0       0  0  1   0  1  0  -1  0  0
                       0  0  1   0 -1  0  -1  0  0       0  0 -1   0  1  0   1  0  0
           symrel51    1  0  0   0  1  0   0  0  1      -1  0  0   0 -1  0   0  0 -1
                      -1  0  0   0  1  0   0  0 -1       1  0  0   0 -1  0   0  0  1
                      -1  0  0   0 -1  0   0  0  1       1  0  0   0  1  0   0  0 -1
                       1  0  0   0 -1  0   0  0 -1      -1  0  0   0  1  0   0  0  1
                       1  0  0   0  0  1   0  1  0      -1  0  0   0  0 -1   0 -1  0
                      -1  0  0   0  0  1   0 -1  0       1  0  0   0  0 -1   0  1  0
                      -1  0  0   0  0 -1   0  1  0       1  0  0   0  0  1   0 -1  0
                       1  0  0   0  0 -1   0 -1  0      -1  0  0   0  0  1   0  1  0
           symrel52    1  0  0   0  1  0   0  0  1      -1  0  0   0 -1  0   0  0 -1
                      -1  0  0   0  1  0   0  0 -1       1  0  0   0 -1  0   0  0  1
                      -1  0  0   0 -1  0   0  0  1       1  0  0   0  1  0   0  0 -1
                       1  0  0   0 -1  0   0  0 -1      -1  0  0   0  1  0   0  0  1
                       0  1  0   1  0  0   0  0  1       0 -1  0  -1  0  0   0  0 -1
                       0 -1  0   1  0  0   0  0 -1       0  1  0  -1  0  0   0  0  1
                       0 -1  0  -1  0  0   0  0  1       0  1  0   1  0  0   0  0 -1
                       0  1  0  -1  0  0   0  0 -1       0 -1  0   1  0  0   0  0  1
                       0  0  1   1  0  0   0  1  0       0  0 -1  -1  0  0   0 -1  0
                       0  0 -1   1  0  0   0 -1  0       0  0  1  -1  0  0   0  1  0
                       0  0 -1  -1  0  0   0  1  0       0  0  1   1  0  0   0 -1  0
                       0  0  1  -1  0  0   0 -1  0       0  0 -1   1  0  0   0  1  0
                       1  0  0   0  0  1   0  1  0      -1  0  0   0  0 -1   0 -1  0
                      -1  0  0   0  0  1   0 -1  0       1  0  0   0  0 -1   0  1  0
                      -1  0  0   0  0 -1   0  1  0       1  0  0   0  0  1   0 -1  0
                       1  0  0   0  0 -1   0 -1  0      -1  0  0   0  0  1   0  1  0
                       0  1  0   0  0  1   1  0  0       0 -1  0   0  0 -1  -1  0  0
                       0 -1  0   0  0  1  -1  0  0       0  1  0   0  0 -1   1  0  0
                       0 -1  0   0  0 -1   1  0  0       0  1  0   0  0  1  -1  0  0
                       0  1  0   0  0 -1  -1  0  0       0 -1  0   0  0  1   1  0  0
                       0  0  1   0  1  0   1  0  0       0  0 -1   0 -1  0  -1  0  0
                       0  0 -1   0  1  0  -1  0  0       0  0  1   0 -1  0   1  0  0
                       0  0 -1   0 -1  0   1  0  0       0  0  1   0  1  0  -1  0  0
                       0  0  1   0 -1  0  -1  0  0       0  0 -1   0  1  0   1  0  0
           symrel61    1  0  0   0  1  0   0  0  1      -1  0  0   0 -1  0   0  0 -1
                      -1  0  0   0  1  0   0  0 -1       1  0  0   0 -1  0   0  0  1
                      -1  0  0   0 -1  0   0  0  1       1  0  0   0  1  0   0  0 -1
                       1  0  0   0 -1  0   0  0 -1      -1  0  0   0  1  0   0  0  1
                       1  0  0   0  0  1   0  1  0      -1  0  0   0  0 -1   0 -1  0
                      -1  0  0   0  0  1   0 -1  0       1  0  0   0  0 -1   0  1  0
                      -1  0  0   0  0 -1   0  1  0       1  0  0   0  0  1   0 -1  0
                       1  0  0   0  0 -1   0 -1  0      -1  0  0   0  0  1   0  1  0
           symrel62    1  0  0   0  1  0   0  0  1      -1  0  0   0 -1  0   0  0 -1
                      -1  0  0   0  1  0   0  0 -1       1  0  0   0 -1  0   0  0  1
                      -1  0  0   0 -1  0   0  0  1       1  0  0   0  1  0   0  0 -1
                       1  0  0   0 -1  0   0  0 -1      -1  0  0   0  1  0   0  0  1
                       0  1  0   1  0  0   0  0  1       0 -1  0  -1  0  0   0  0 -1
                       0 -1  0   1  0  0   0  0 -1       0  1  0  -1  0  0   0  0  1
                       0 -1  0  -1  0  0   0  0  1       0  1  0   1  0  0   0  0 -1
                       0  1  0  -1  0  0   0  0 -1       0 -1  0   1  0  0   0  0  1
                       0  0  1   1  0  0   0  1  0       0  0 -1  -1  0  0   0 -1  0
                       0  0 -1   1  0  0   0 -1  0       0  0  1  -1  0  0   0  1  0
                       0  0 -1  -1  0  0   0  1  0       0  0  1   1  0  0   0 -1  0
                       0  0  1  -1  0  0   0 -1  0       0  0 -1   1  0  0   0  1  0
                       1  0  0   0  0  1   0  1  0      -1  0  0   0  0 -1   0 -1  0
                      -1  0  0   0  0  1   0 -1  0       1  0  0   0  0 -1   0  1  0
                      -1  0  0   0  0 -1   0  1  0       1  0  0   0  0  1   0 -1  0
                       1  0  0   0  0 -1   0 -1  0      -1  0  0   0  0  1   0  1  0
                       0  1  0   0  0  1   1  0  0       0 -1  0   0  0 -1  -1  0  0
                       0 -1  0   0  0  1  -1  0  0       0  1  0   0  0 -1   1  0  0
                       0 -1  0   0  0 -1   1  0  0       0  1  0   0  0  1  -1  0  0
                       0  1  0   0  0 -1  -1  0  0       0 -1  0   0  0  1   1  0  0
                       0  0  1   0  1  0   1  0  0       0  0 -1   0 -1  0  -1  0  0
                       0  0 -1   0  1  0  -1  0  0       0  0  1   0 -1  0   1  0  0
                       0  0 -1   0 -1  0   1  0  0       0  0  1   0  1  0  -1  0  0
                       0  0  1   0 -1  0  -1  0  0       0  0 -1   0  1  0   1  0  0
            tnons11    0.0000000  0.0000000  0.0000000     0.0000000  0.0000000  0.0000000
                       0.0000000  0.0000000  0.0000000     0.0000000  0.0000000  0.0000000
                       0.0000000  0.0000000  0.0000000     0.0000000  0.0000000  0.0000000
                       0.0000000  0.0000000  0.0000000     0.0000000  0.0000000  0.0000000
                       0.0000000  0.0000000  0.0000000     0.0000000  0.0000000  0.0000000
                       0.0000000  0.0000000  0.0000000     0.0000000  0.0000000  0.0000000
                       0.0000000  0.0000000  0.0000000     0.0000000  0.0000000  0.0000000
                       0.0000000  0.0000000  0.0000000     0.0000000  0.0000000  0.0000000
            tnons12    0.0000000  0.0000000  0.0000000     0.0000000  0.0000000  0.0000000
                       0.0000000  0.0000000  0.0000000     0.0000000  0.0000000  0.0000000
                       0.0000000  0.0000000  0.0000000     0.0000000  0.0000000  0.0000000
                       0.0000000  0.0000000  0.0000000     0.0000000  0.0000000  0.0000000
                       0.0000000  0.0000000  0.0000000     0.0000000  0.0000000  0.0000000
                       0.0000000  0.0000000  0.0000000     0.0000000  0.0000000  0.0000000
                       0.0000000  0.0000000  0.0000000     0.0000000  0.0000000  0.0000000
                       0.0000000  0.0000000  0.0000000     0.0000000  0.0000000  0.0000000
                       0.0000000  0.0000000  0.0000000     0.0000000  0.0000000  0.0000000
                       0.0000000  0.0000000  0.0000000     0.0000000  0.0000000  0.0000000
                       0.0000000  0.0000000  0.0000000     0.0000000  0.0000000  0.0000000
                       0.0000000  0.0000000  0.0000000     0.0000000  0.0000000  0.0000000
                       0.0000000  0.0000000  0.0000000     0.0000000  0.0000000  0.0000000
                       0.0000000  0.0000000  0.0000000     0.0000000  0.0000000  0.0000000
                       0.0000000  0.0000000  0.0000000     0.0000000  0.0000000  0.0000000
                       0.0000000  0.0000000  0.0000000     0.0000000  0.0000000  0.0000000
                       0.0000000  0.0000000  0.0000000     0.0000000  0.0000000  0.0000000
                       0.0000000  0.0000000  0.0000000     0.0000000  0.0000000  0.0000000
                       0.0000000  0.0000000  0.0000000     0.0000000  0.0000000  0.0000000
                       0.0000000  0.0000000  0.0000000     0.0000000  0.0000000  0.0000000
                       0.0000000  0.0000000  0.0000000     0.0000000  0.0000000  0.0000000
                       0.0000000  0.0000000  0.0000000     0.0000000  0.0000000  0.0000000
                       0.0000000  0.0000000  0.0000000     0.0000000  0.0000000  0.0000000
                       0.0000000  0.0000000  0.0000000     0.0000000  0.0000000  0.0000000
            tnons21    0.0000000  0.0000000  0.0000000     0.0000000  0.0000000  0.0000000
                       0.0000000  0.0000000  0.0000000     0.0000000  0.0000000  0.0000000
                       0.0000000  0.0000000  0.0000000     0.0000000  0.0000000  0.0000000
                       0.0000000  0.0000000  0.0000000     0.0000000  0.0000000  0.0000000
                       0.0000000  0.0000000  0.0000000     0.0000000  0.0000000  0.0000000
                       0.0000000  0.0000000  0.0000000     0.0000000  0.0000000  0.0000000
                       0.0000000  0.0000000  0.0000000     0.0000000  0.0000000  0.0000000
                       0.0000000  0.0000000  0.0000000     0.0000000  0.0000000  0.0000000
            tnons22    0.0000000  0.0000000  0.0000000     0.0000000  0.0000000  0.0000000
                       0.0000000  0.0000000  0.0000000     0.0000000  0.0000000  0.0000000
                       0.0000000  0.0000000  0.0000000     0.0000000  0.0000000  0.0000000
                       0.0000000  0.0000000  0.0000000     0.0000000  0.0000000  0.0000000
                       0.0000000  0.0000000  0.0000000     0.0000000  0.0000000  0.0000000
                       0.0000000  0.0000000  0.0000000     0.0000000  0.0000000  0.0000000
                       0.0000000  0.0000000  0.0000000     0.0000000  0.0000000  0.0000000
                       0.0000000  0.0000000  0.0000000     0.0000000  0.0000000  0.0000000
                       0.0000000  0.0000000  0.0000000     0.0000000  0.0000000  0.0000000
                       0.0000000  0.0000000  0.0000000     0.0000000  0.0000000  0.0000000
                       0.0000000  0.0000000  0.0000000     0.0000000  0.0000000  0.0000000
                       0.0000000  0.0000000  0.0000000     0.0000000  0.0000000  0.0000000
                       0.0000000  0.0000000  0.0000000     0.0000000  0.0000000  0.0000000
                       0.0000000  0.0000000  0.0000000     0.0000000  0.0000000  0.0000000
                       0.0000000  0.0000000  0.0000000     0.0000000  0.0000000  0.0000000
                       0.0000000  0.0000000  0.0000000     0.0000000  0.0000000  0.0000000
                       0.0000000  0.0000000  0.0000000     0.0000000  0.0000000  0.0000000
                       0.0000000  0.0000000  0.0000000     0.0000000  0.0000000  0.0000000
                       0.0000000  0.0000000  0.0000000     0.0000000  0.0000000  0.0000000
                       0.0000000  0.0000000  0.0000000     0.0000000  0.0000000  0.0000000
                       0.0000000  0.0000000  0.0000000     0.0000000  0.0000000  0.0000000
                       0.0000000  0.0000000  0.0000000     0.0000000  0.0000000  0.0000000
                       0.0000000  0.0000000  0.0000000     0.0000000  0.0000000  0.0000000
                       0.0000000  0.0000000  0.0000000     0.0000000  0.0000000  0.0000000
            tnons31    0.0000000  0.0000000  0.0000000     0.0000000  0.0000000  0.0000000
                       0.0000000  0.0000000  0.0000000     0.0000000  0.0000000  0.0000000
                       0.0000000  0.0000000  0.0000000     0.0000000  0.0000000  0.0000000
                       0.0000000  0.0000000  0.0000000     0.0000000  0.0000000  0.0000000
                       0.0000000  0.0000000  0.0000000     0.0000000  0.0000000  0.0000000
                       0.0000000  0.0000000  0.0000000     0.0000000  0.0000000  0.0000000
                       0.0000000  0.0000000  0.0000000     0.0000000  0.0000000  0.0000000
                       0.0000000  0.0000000  0.0000000     0.0000000  0.0000000  0.0000000
            tnons32    0.0000000  0.0000000  0.0000000     0.0000000  0.0000000  0.0000000
                       0.0000000  0.0000000  0.0000000     0.0000000  0.0000000  0.0000000
                       0.0000000  0.0000000  0.0000000     0.0000000  0.0000000  0.0000000
                       0.0000000  0.0000000  0.0000000     0.0000000  0.0000000  0.0000000
                       0.0000000  0.0000000  0.0000000     0.0000000  0.0000000  0.0000000
                       0.0000000  0.0000000  0.0000000     0.0000000  0.0000000  0.0000000
                       0.0000000  0.0000000  0.0000000     0.0000000  0.0000000  0.0000000
                       0.0000000  0.0000000  0.0000000     0.0000000  0.0000000  0.0000000
                       0.0000000  0.0000000  0.0000000     0.0000000  0.0000000  0.0000000
                       0.0000000  0.0000000  0.0000000     0.0000000  0.0000000  0.0000000
                       0.0000000  0.0000000  0.0000000     0.0000000  0.0000000  0.0000000
                       0.0000000  0.0000000  0.0000000     0.0000000  0.0000000  0.0000000
                       0.0000000  0.0000000  0.0000000     0.0000000  0.0000000  0.0000000
                       0.0000000  0.0000000  0.0000000     0.0000000  0.0000000  0.0000000
                       0.0000000  0.0000000  0.0000000     0.0000000  0.0000000  0.0000000
                       0.0000000  0.0000000  0.0000000     0.0000000  0.0000000  0.0000000
                       0.0000000  0.0000000  0.0000000     0.0000000  0.0000000  0.0000000
                       0.0000000  0.0000000  0.0000000     0.0000000  0.0000000  0.0000000
                       0.0000000  0.0000000  0.0000000     0.0000000  0.0000000  0.0000000
                       0.0000000  0.0000000  0.0000000     0.0000000  0.0000000  0.0000000
                       0.0000000  0.0000000  0.0000000     0.0000000  0.0000000  0.0000000
                       0.0000000  0.0000000  0.0000000     0.0000000  0.0000000  0.0000000
                       0.0000000  0.0000000  0.0000000     0.0000000  0.0000000  0.0000000
                       0.0000000  0.0000000  0.0000000     0.0000000  0.0000000  0.0000000
            tnons41    0.0000000  0.0000000  0.0000000     0.0000000  0.0000000  0.0000000
                       0.0000000  0.0000000  0.0000000     0.0000000  0.0000000  0.0000000
                       0.0000000  0.0000000  0.0000000     0.0000000  0.0000000  0.0000000
                       0.0000000  0.0000000  0.0000000     0.0000000  0.0000000  0.0000000
                       0.0000000  0.0000000  0.0000000     0.0000000  0.0000000  0.0000000
                       0.0000000  0.0000000  0.0000000     0.0000000  0.0000000  0.0000000
                       0.0000000  0.0000000  0.0000000     0.0000000  0.0000000  0.0000000
                       0.0000000  0.0000000  0.0000000     0.0000000  0.0000000  0.0000000
            tnons42    0.0000000  0.0000000  0.0000000     0.0000000  0.0000000  0.0000000
                       0.0000000  0.0000000  0.0000000     0.0000000  0.0000000  0.0000000
                       0.0000000  0.0000000  0.0000000     0.0000000  0.0000000  0.0000000
                       0.0000000  0.0000000  0.0000000     0.0000000  0.0000000  0.0000000
                       0.0000000  0.0000000  0.0000000     0.0000000  0.0000000  0.0000000
                       0.0000000  0.0000000  0.0000000     0.0000000  0.0000000  0.0000000
                       0.0000000  0.0000000  0.0000000     0.0000000  0.0000000  0.0000000
                       0.0000000  0.0000000  0.0000000     0.0000000  0.0000000  0.0000000
                       0.0000000  0.0000000  0.0000000     0.0000000  0.0000000  0.0000000
                       0.0000000  0.0000000  0.0000000     0.0000000  0.0000000  0.0000000
                       0.0000000  0.0000000  0.0000000     0.0000000  0.0000000  0.0000000
                       0.0000000  0.0000000  0.0000000     0.0000000  0.0000000  0.0000000
                       0.0000000  0.0000000  0.0000000     0.0000000  0.0000000  0.0000000
                       0.0000000  0.0000000  0.0000000     0.0000000  0.0000000  0.0000000
                       0.0000000  0.0000000  0.0000000     0.0000000  0.0000000  0.0000000
                       0.0000000  0.0000000  0.0000000     0.0000000  0.0000000  0.0000000
                       0.0000000  0.0000000  0.0000000     0.0000000  0.0000000  0.0000000
                       0.0000000  0.0000000  0.0000000     0.0000000  0.0000000  0.0000000
                       0.0000000  0.0000000  0.0000000     0.0000000  0.0000000  0.0000000
                       0.0000000  0.0000000  0.0000000     0.0000000  0.0000000  0.0000000
                       0.0000000  0.0000000  0.0000000     0.0000000  0.0000000  0.0000000
                       0.0000000  0.0000000  0.0000000     0.0000000  0.0000000  0.0000000
                       0.0000000  0.0000000  0.0000000     0.0000000  0.0000000  0.0000000
                       0.0000000  0.0000000  0.0000000     0.0000000  0.0000000  0.0000000
            tnons51    0.0000000  0.0000000  0.0000000     0.0000000  0.0000000  0.0000000
                       0.0000000  0.0000000  0.0000000     0.0000000  0.0000000  0.0000000
                       0.0000000  0.0000000  0.0000000     0.0000000  0.0000000  0.0000000
                       0.0000000  0.0000000  0.0000000     0.0000000  0.0000000  0.0000000
                       0.0000000  0.0000000  0.0000000     0.0000000  0.0000000  0.0000000
                       0.0000000  0.0000000  0.0000000     0.0000000  0.0000000  0.0000000
                       0.0000000  0.0000000  0.0000000     0.0000000  0.0000000  0.0000000
                       0.0000000  0.0000000  0.0000000     0.0000000  0.0000000  0.0000000
            tnons52    0.0000000  0.0000000  0.0000000     0.0000000  0.0000000  0.0000000
                       0.0000000  0.0000000  0.0000000     0.0000000  0.0000000  0.0000000
                       0.0000000  0.0000000  0.0000000     0.0000000  0.0000000  0.0000000
                       0.0000000  0.0000000  0.0000000     0.0000000  0.0000000  0.0000000
                       0.0000000  0.0000000  0.0000000     0.0000000  0.0000000  0.0000000
                       0.0000000  0.0000000  0.0000000     0.0000000  0.0000000  0.0000000
                       0.0000000  0.0000000  0.0000000     0.0000000  0.0000000  0.0000000
                       0.0000000  0.0000000  0.0000000     0.0000000  0.0000000  0.0000000
                       0.0000000  0.0000000  0.0000000     0.0000000  0.0000000  0.0000000
                       0.0000000  0.0000000  0.0000000     0.0000000  0.0000000  0.0000000
                       0.0000000  0.0000000  0.0000000     0.0000000  0.0000000  0.0000000
                       0.0000000  0.0000000  0.0000000     0.0000000  0.0000000  0.0000000
                       0.0000000  0.0000000  0.0000000     0.0000000  0.0000000  0.0000000
                       0.0000000  0.0000000  0.0000000     0.0000000  0.0000000  0.0000000
                       0.0000000  0.0000000  0.0000000     0.0000000  0.0000000  0.0000000
                       0.0000000  0.0000000  0.0000000     0.0000000  0.0000000  0.0000000
                       0.0000000  0.0000000  0.0000000     0.0000000  0.0000000  0.0000000
                       0.0000000  0.0000000  0.0000000     0.0000000  0.0000000  0.0000000
                       0.0000000  0.0000000  0.0000000     0.0000000  0.0000000  0.0000000
                       0.0000000  0.0000000  0.0000000     0.0000000  0.0000000  0.0000000
                       0.0000000  0.0000000  0.0000000     0.0000000  0.0000000  0.0000000
                       0.0000000  0.0000000  0.0000000     0.0000000  0.0000000  0.0000000
                       0.0000000  0.0000000  0.0000000     0.0000000  0.0000000  0.0000000
                       0.0000000  0.0000000  0.0000000     0.0000000  0.0000000  0.0000000
            tnons61    0.0000000  0.0000000  0.0000000     0.0000000  0.0000000  0.0000000
                       0.0000000  0.0000000  0.0000000     0.0000000  0.0000000  0.0000000
                       0.0000000  0.0000000  0.0000000     0.0000000  0.0000000  0.0000000
                       0.0000000  0.0000000  0.0000000     0.0000000  0.0000000  0.0000000
                       0.0000000  0.0000000  0.0000000     0.0000000  0.0000000  0.0000000
                       0.0000000  0.0000000  0.0000000     0.0000000  0.0000000  0.0000000
                       0.0000000  0.0000000  0.0000000     0.0000000  0.0000000  0.0000000
                       0.0000000  0.0000000  0.0000000     0.0000000  0.0000000  0.0000000
            tnons62    0.0000000  0.0000000  0.0000000     0.0000000  0.0000000  0.0000000
                       0.0000000  0.0000000  0.0000000     0.0000000  0.0000000  0.0000000
                       0.0000000  0.0000000  0.0000000     0.0000000  0.0000000  0.0000000
                       0.0000000  0.0000000  0.0000000     0.0000000  0.0000000  0.0000000
                       0.0000000  0.0000000  0.0000000     0.0000000  0.0000000  0.0000000
                       0.0000000  0.0000000  0.0000000     0.0000000  0.0000000  0.0000000
                       0.0000000  0.0000000  0.0000000     0.0000000  0.0000000  0.0000000
                       0.0000000  0.0000000  0.0000000     0.0000000  0.0000000  0.0000000
                       0.0000000  0.0000000  0.0000000     0.0000000  0.0000000  0.0000000
                       0.0000000  0.0000000  0.0000000     0.0000000  0.0000000  0.0000000
                       0.0000000  0.0000000  0.0000000     0.0000000  0.0000000  0.0000000
                       0.0000000  0.0000000  0.0000000     0.0000000  0.0000000  0.0000000
                       0.0000000  0.0000000  0.0000000     0.0000000  0.0000000  0.0000000
                       0.0000000  0.0000000  0.0000000     0.0000000  0.0000000  0.0000000
                       0.0000000  0.0000000  0.0000000     0.0000000  0.0000000  0.0000000
                       0.0000000  0.0000000  0.0000000     0.0000000  0.0000000  0.0000000
                       0.0000000  0.0000000  0.0000000     0.0000000  0.0000000  0.0000000
                       0.0000000  0.0000000  0.0000000     0.0000000  0.0000000  0.0000000
                       0.0000000  0.0000000  0.0000000     0.0000000  0.0000000  0.0000000
                       0.0000000  0.0000000  0.0000000     0.0000000  0.0000000  0.0000000
                       0.0000000  0.0000000  0.0000000     0.0000000  0.0000000  0.0000000
                       0.0000000  0.0000000  0.0000000     0.0000000  0.0000000  0.0000000
                       0.0000000  0.0000000  0.0000000     0.0000000  0.0000000  0.0000000
                       0.0000000  0.0000000  0.0000000     0.0000000  0.0000000  0.0000000
           toldfe11    0.00000000E+00 Hartree
           toldfe12    1.00000000E-06 Hartree
           toldfe21    0.00000000E+00 Hartree
           toldfe22    1.00000000E-06 Hartree
           toldfe31    0.00000000E+00 Hartree
           toldfe32    1.00000000E-06 Hartree
           toldfe41    0.00000000E+00 Hartree
           toldfe42    1.00000000E-06 Hartree
           toldfe51    0.00000000E+00 Hartree
           toldfe52    1.00000000E-06 Hartree
           toldfe61    0.00000000E+00 Hartree
           toldfe62    1.00000000E-06 Hartree
           toldff11    5.00000000E-05
           toldff12    0.00000000E+00
           toldff21    5.00000000E-05
           toldff22    0.00000000E+00
           toldff31    5.00000000E-05
           toldff32    0.00000000E+00
           toldff41    5.00000000E-05
           toldff42    0.00000000E+00
           toldff51    5.00000000E-05
           toldff52    0.00000000E+00
           toldff61    5.00000000E-05
           toldff62    0.00000000E+00
           tolmxf11    5.00000000E-04
           tolmxf12    5.00000000E-05
           tolmxf21    5.00000000E-04
           tolmxf22    5.00000000E-05
           tolmxf31    5.00000000E-04
           tolmxf32    5.00000000E-05
           tolmxf41    5.00000000E-04
           tolmxf42    5.00000000E-05
           tolmxf51    5.00000000E-04
           tolmxf52    5.00000000E-05
           tolmxf61    5.00000000E-04
           tolmxf62    5.00000000E-05
            typat11    1  1
            typat12    1
            typat21    1  1
            typat22    1
            typat31    1  1
            typat32    1
            typat41    1  1
            typat42    1
            typat51    1  1
            typat52    1
            typat61    1  1
            typat62    1
           xangst11   -3.7042404601E-01  0.0000000000E+00  0.0000000000E+00
                       3.7042404601E-01  0.0000000000E+00  0.0000000000E+00
           xangst12    0.0000000000E+00  0.0000000000E+00  0.0000000000E+00
           xangst21   -3.7042404601E-01  0.0000000000E+00  0.0000000000E+00
                       3.7042404601E-01  0.0000000000E+00  0.0000000000E+00
           xangst22    0.0000000000E+00  0.0000000000E+00  0.0000000000E+00
           xangst31   -3.7042404601E-01  0.0000000000E+00  0.0000000000E+00
                       3.7042404601E-01  0.0000000000E+00  0.0000000000E+00
           xangst32    0.0000000000E+00  0.0000000000E+00  0.0000000000E+00
           xangst41   -3.7042404601E-01  0.0000000000E+00  0.0000000000E+00
                       3.7042404601E-01  0.0000000000E+00  0.0000000000E+00
           xangst42    0.0000000000E+00  0.0000000000E+00  0.0000000000E+00
           xangst51   -3.7042404601E-01  0.0000000000E+00  0.0000000000E+00
                       3.7042404601E-01  0.0000000000E+00  0.0000000000E+00
           xangst52    0.0000000000E+00  0.0000000000E+00  0.0000000000E+00
           xangst61   -3.7042404601E-01  0.0000000000E+00  0.0000000000E+00
                       3.7042404601E-01  0.0000000000E+00  0.0000000000E+00
           xangst62    0.0000000000E+00  0.0000000000E+00  0.0000000000E+00
            xcart11   -7.0000000000E-01  0.0000000000E+00  0.0000000000E+00
                       7.0000000000E-01  0.0000000000E+00  0.0000000000E+00
            xcart12    0.0000000000E+00  0.0000000000E+00  0.0000000000E+00
            xcart21   -7.0000000000E-01  0.0000000000E+00  0.0000000000E+00
                       7.0000000000E-01  0.0000000000E+00  0.0000000000E+00
            xcart22    0.0000000000E+00  0.0000000000E+00  0.0000000000E+00
            xcart31   -7.0000000000E-01  0.0000000000E+00  0.0000000000E+00
                       7.0000000000E-01  0.0000000000E+00  0.0000000000E+00
            xcart32    0.0000000000E+00  0.0000000000E+00  0.0000000000E+00
            xcart41   -7.0000000000E-01  0.0000000000E+00  0.0000000000E+00
                       7.0000000000E-01  0.0000000000E+00  0.0000000000E+00
            xcart42    0.0000000000E+00  0.0000000000E+00  0.0000000000E+00
            xcart51   -7.0000000000E-01  0.0000000000E+00  0.0000000000E+00
                       7.0000000000E-01  0.0000000000E+00  0.0000000000E+00
            xcart52    0.0000000000E+00  0.0000000000E+00  0.0000000000E+00
            xcart61   -7.0000000000E-01  0.0000000000E+00  0.0000000000E+00
                       7.0000000000E-01  0.0000000000E+00  0.0000000000E+00
            xcart62    0.0000000000E+00  0.0000000000E+00  0.0000000000E+00
             xred11   -8.7500000000E-02  0.0000000000E+00  0.0000000000E+00
                       8.7500000000E-02  0.0000000000E+00  0.0000000000E+00
             xred12    0.0000000000E+00  0.0000000000E+00  0.0000000000E+00
             xred21   -7.0000000000E-02  0.0000000000E+00  0.0000000000E+00
                       7.0000000000E-02  0.0000000000E+00  0.0000000000E+00
             xred22    0.0000000000E+00  0.0000000000E+00  0.0000000000E+00
             xred31   -5.8333333333E-02  0.0000000000E+00  0.0000000000E+00
                       5.8333333333E-02  0.0000000000E+00  0.0000000000E+00
             xred32    0.0000000000E+00  0.0000000000E+00  0.0000000000E+00
             xred41   -5.0000000000E-02  0.0000000000E+00  0.0000000000E+00
                       5.0000000000E-02  0.0000000000E+00  0.0000000000E+00
             xred42    0.0000000000E+00  0.0000000000E+00  0.0000000000E+00
             xred51   -4.3750000000E-02  0.0000000000E+00  0.0000000000E+00
                       4.3750000000E-02  0.0000000000E+00  0.0000000000E+00
             xred52    0.0000000000E+00  0.0000000000E+00  0.0000000000E+00
             xred61   -3.8888888889E-02  0.0000000000E+00  0.0000000000E+00
                       3.8888888889E-02  0.0000000000E+00  0.0000000000E+00
             xred62    0.0000000000E+00  0.0000000000E+00  0.0000000000E+00
            znucl        1.00000

================================================================================

 chkinp: Checking input parameters for consistency, jdtset=  11.

 chkinp: Checking input parameters for consistency, jdtset=  12.

 chkinp: Checking input parameters for consistency, jdtset=  21.

 chkinp: Checking input parameters for consistency, jdtset=  22.

 chkinp: Checking input parameters for consistency, jdtset=  31.

 chkinp: Checking input parameters for consistency, jdtset=  32.

 chkinp: Checking input parameters for consistency, jdtset=  41.

 chkinp: Checking input parameters for consistency, jdtset=  42.

 chkinp: Checking input parameters for consistency, jdtset=  51.

 chkinp: Checking input parameters for consistency, jdtset=  52.

 chkinp: Checking input parameters for consistency, jdtset=  61.

 chkinp: Checking input parameters for consistency, jdtset=  62.

================================================================================
== DATASET 11 ==================================================================
-   mpi_nproc: 1, omp_nthreads: -1 (-1 if OMP is not activated)


--- !DatasetInfo
iteration_state: {dtset: 11, }
dimensions: {natom: 2, nkpt: 1, mband: 1, nsppol: 1, nspinor: 1, nspden: 1, mpw: 376, }
cutoff_energies: {ecut:  10.0, pawecutdg:  -1.0, }
electrons: {nelect:   2.00000000E+00, charge:   0.00000000E+00, occopt:   1.00000000E+00, tsmear:   1.00000000E-02, }
meta: {optdriver: 0, ionmov: 2, optcell: 0, iscf: 7, paral_kgb: 0, }
...

 Real(R)+Recip(G) space primitive vectors, cartesian coordinates (Bohr,Bohr^-1):
 R(1)=  8.0000000  0.0000000  0.0000000  G(1)=  0.1250000  0.0000000  0.0000000
 R(2)=  0.0000000  8.0000000  0.0000000  G(2)=  0.0000000  0.1250000  0.0000000
 R(3)=  0.0000000  0.0000000  8.0000000  G(3)=  0.0000000  0.0000000  0.1250000
 Unit cell volume ucvol=  5.1200000E+02 bohr^3
 Angles (23,13,12)=  9.00000000E+01  9.00000000E+01  9.00000000E+01 degrees

 getcut: wavevector=  0.0000  0.0000  0.0000  ngfft=  24  24  24
         ecut(hartree)=     10.000   => boxcut(ratio)=   2.10744

--- Pseudopotential description ------------------------------------------------
- pspini: atom type   1  psp file is /home/buildbot/ABINIT3/eos_gnu_13.2_mpich/trunk_merge-10.0/tests/Pspdir/Psdj_nc_sr_04_pw_std_psp8/H.psp8
- pspatm: opening atomic psp file    /home/buildbot/ABINIT3/eos_gnu_13.2_mpich/trunk_merge-10.0/tests/Pspdir/Psdj_nc_sr_04_pw_std_psp8/H.psp8
- H     ONCVPSP-3.3.0  r_core=   1.00957   0.90680
-  1.00000   1.00000    171101                znucl, zion, pspdat
    8   -1012    1    4       300   0.00000   pspcod,pspxc,lmax,lloc,mmax,r2well
    2.99000000000000    0.00000000000000    0.00000000000000   rchrg,fchrg,qchrg
     nproj     2     1
     extension_switch     1
  pspatm : epsatm=    0.35491505
         --- l  ekb(1:nproj) -->
             0   -1.665338   -0.519510
             1   -0.275071
 pspatm: atomic psp has been read  and splines computed

   1.41966018E+00                                ecore*ucvol(ha*bohr**3)
--------------------------------------------------------------------------------

_setup2: Arith. and geom. avg. npw (full set) are     751.000     751.000

================================================================================

=== [ionmov= 2] Broyden-Fletcher-Goldfarb-Shanno method (forces)            
================================================================================

--- Iteration: ( 1/10) Internal Cycle: (1/1)
--------------------------------------------------------------------------------

---SELF-CONSISTENT-FIELD CONVERGENCE--------------------------------------------

--- !BeginCycle
iteration_state: {dtset: 11, itime: 1, icycle: 1, }
solver: {iscf: 7, nstep: 10, nline: 4, wfoptalg: 0, }
tolerances: {toldff: 5.00E-05, }
...

     iter   Etot(hartree)      deltaE(h)  residm     vres2    diffor    maxfor
 ETOT  1  -1.1208287419091    -1.121E+00 2.727E-06 9.647E+00 6.992E-03 6.992E-03
 ETOT  2  -1.1280126502419    -7.184E-03 1.001E-09 1.565E-01 3.548E-02 4.247E-02
 ETOT  3  -1.1282369482663    -2.243E-04 2.070E-06 3.126E-02 5.950E-03 3.652E-02
 ETOT  4  -1.1282478775397    -1.093E-05 5.296E-09 1.123E-04 1.274E-03 3.779E-02
 ETOT  5  -1.1282479485295    -7.099E-08 3.152E-11 1.515E-06 1.061E-04 3.769E-02
 ETOT  6  -1.1282479485819    -5.247E-11 2.114E-13 1.011E-08 3.093E-06 3.768E-02
 ETOT  7  -1.1282479485851    -3.173E-12 1.201E-14 8.138E-11 8.285E-07 3.768E-02

 At SCF step    7, forces are converged : 
  for the second time, max diff in force=  8.285E-07 < toldff=  5.000E-05

 Cartesian components of stress tensor (hartree/bohr^3)
  sigma(1 1)=  2.30924867E-05  sigma(3 2)=  0.00000000E+00
  sigma(2 2)=  1.09754863E-04  sigma(3 1)=  0.00000000E+00
  sigma(3 3)=  1.09754863E-04  sigma(2 1)=  0.00000000E+00


--- !ResultsGS
iteration_state: {dtset: 11, itime: 1, icycle: 1, }
comment   : Summary of ground state results
lattice_vectors:
- [  8.0000000,   0.0000000,   0.0000000, ]
- [  0.0000000,   8.0000000,   0.0000000, ]
- [  0.0000000,   0.0000000,   8.0000000, ]
lattice_lengths: [   8.00000,    8.00000,    8.00000, ]
lattice_angles: [ 90.000,  90.000,  90.000, ] # degrees, (23, 13, 12)
lattice_volume:   5.1200000E+02
convergence: {deltae: -3.173E-12, res2:  8.138E-11, residm:  1.201E-14, diffor:  8.285E-07, }
etotal    :  -1.12824795E+00
entropy   :   0.00000000E+00
fermie    :  -3.78440719E-01
cartesian_stress_tensor: # hartree/bohr^3
- [  2.30924867E-05,   0.00000000E+00,   0.00000000E+00, ]
- [  0.00000000E+00,   1.09754863E-04,   0.00000000E+00, ]
- [  0.00000000E+00,   0.00000000E+00,   1.09754863E-04, ]
pressure_GPa:  -2.3792E+00
xred      :
- [ -8.7500E-02,   0.0000E+00,   0.0000E+00,  H]
- [  8.7500E-02,   0.0000E+00,   0.0000E+00,  H]
cartesian_forces: # hartree/bohr
- [ -3.76846267E-02,  -0.00000000E+00,  -0.00000000E+00, ]
- [  3.76846267E-02,  -0.00000000E+00,  -0.00000000E+00, ]
force_length_stats: {min:   3.76846267E-02, max:   3.76846267E-02, mean:   3.76846267E-02, }
...

 Integrated electronic density in atomic spheres:
 ------------------------------------------------
 Atom  Sphere_radius  Integrated_density
    1        2.00000          1.41497655
    2        2.00000          1.41497655

---OUTPUT-----------------------------------------------------------------------

 Cartesian coordinates (xcart) [bohr]
 -7.00000000000000E-01  0.00000000000000E+00  0.00000000000000E+00
  7.00000000000000E-01  0.00000000000000E+00  0.00000000000000E+00
 Reduced coordinates (xred)
 -8.75000000000000E-02  0.00000000000000E+00  0.00000000000000E+00
  8.75000000000000E-02  0.00000000000000E+00  0.00000000000000E+00
 Cartesian forces (fcart) [Ha/bohr]; max,rms= 3.76846E-02 2.17572E-02 (free atoms)
 -3.76846266955721E-02 -0.00000000000000E+00 -0.00000000000000E+00
  3.76846266955721E-02 -0.00000000000000E+00 -0.00000000000000E+00
 Gradient of E wrt nuclear positions in reduced coordinates (gred)
  3.01477013564577E-01  0.00000000000000E+00  0.00000000000000E+00
 -3.01477013564577E-01 -0.00000000000000E+00 -0.00000000000000E+00
 Total energy (etotal) [Ha]= -1.12824794858511E+00

--- Iteration: ( 2/10) Internal Cycle: (1/1)
--------------------------------------------------------------------------------

---SELF-CONSISTENT-FIELD CONVERGENCE--------------------------------------------

--- !BeginCycle
iteration_state: {dtset: 11, itime: 2, icycle: 1, }
solver: {iscf: 7, nstep: 10, nline: 4, wfoptalg: 0, }
tolerances: {toldff: 5.00E-05, }
...

     iter   Etot(hartree)      deltaE(h)  residm     vres2    diffor    maxfor
 ETOT  1  -1.1301269044034    -1.130E+00 2.208E-10 4.572E-02 2.316E-02 1.453E-02
 ETOT  2  -1.1301496531151    -2.275E-05 2.681E-13 1.049E-03 1.014E-03 1.351E-02
 ETOT  3  -1.1301506128951    -9.598E-07 5.515E-10 1.534E-04 4.225E-04 1.394E-02
 ETOT  4  -1.1301506674686    -5.457E-08 1.897E-11 4.542E-06 7.564E-05 1.386E-02
 ETOT  5  -1.1301506677068    -2.383E-10 1.039E-13 1.647E-08 9.977E-07 1.386E-02
 ETOT  6  -1.1301506677071    -3.071E-13 1.076E-15 2.100E-10 3.085E-08 1.386E-02

 At SCF step    6, forces are converged : 
  for the second time, max diff in force=  3.085E-08 < toldff=  5.000E-05

 Cartesian components of stress tensor (hartree/bohr^3)
  sigma(1 1)=  9.78358555E-05  sigma(3 2)=  0.00000000E+00
  sigma(2 2)=  1.10149625E-04  sigma(3 1)=  0.00000000E+00
  sigma(3 3)=  1.10149625E-04  sigma(2 1)=  0.00000000E+00


--- !ResultsGS
iteration_state: {dtset: 11, itime: 2, icycle: 1, }
comment   : Summary of ground state results
lattice_vectors:
- [  8.0000000,   0.0000000,   0.0000000, ]
- [  0.0000000,   8.0000000,   0.0000000, ]
- [  0.0000000,   0.0000000,   8.0000000, ]
lattice_lengths: [   8.00000,    8.00000,    8.00000, ]
lattice_angles: [ 90.000,  90.000,  90.000, ] # degrees, (23, 13, 12)
lattice_volume:   5.1200000E+02
convergence: {deltae: -3.071E-13, res2:  2.100E-10, residm:  1.076E-15, diffor:  3.085E-08, }
etotal    :  -1.13015067E+00
entropy   :   0.00000000E+00
fermie    :  -3.72513465E-01
cartesian_stress_tensor: # hartree/bohr^3
- [  9.78358555E-05,   0.00000000E+00,   0.00000000E+00, ]
- [  0.00000000E+00,   1.10149625E-04,   0.00000000E+00, ]
- [  0.00000000E+00,   0.00000000E+00,   1.10149625E-04, ]
pressure_GPa:  -3.1200E+00
xred      :
- [ -9.2211E-02,   0.0000E+00,   0.0000E+00,  H]
- [  9.2211E-02,   0.0000E+00,   0.0000E+00,  H]
cartesian_forces: # hartree/bohr
- [ -1.38604060E-02,  -0.00000000E+00,  -0.00000000E+00, ]
- [  1.38604060E-02,  -0.00000000E+00,  -0.00000000E+00, ]
force_length_stats: {min:   1.38604060E-02, max:   1.38604060E-02, mean:   1.38604060E-02, }
...

 Integrated electronic density in atomic spheres:
 ------------------------------------------------
 Atom  Sphere_radius  Integrated_density
    1        2.00000          1.37873537
    2        2.00000          1.37873537

---OUTPUT-----------------------------------------------------------------------

 Cartesian coordinates (xcart) [bohr]
 -7.37684626695572E-01  0.00000000000000E+00  0.00000000000000E+00
  7.37684626695572E-01  0.00000000000000E+00  0.00000000000000E+00
 Reduced coordinates (xred)
 -9.22105783369465E-02  0.00000000000000E+00  0.00000000000000E+00
  9.22105783369465E-02  0.00000000000000E+00  0.00000000000000E+00
 Cartesian forces (fcart) [Ha/bohr]; max,rms= 1.38604E-02 8.00231E-03 (free atoms)
 -1.38604059672894E-02 -0.00000000000000E+00 -0.00000000000000E+00
  1.38604059672894E-02 -0.00000000000000E+00 -0.00000000000000E+00
 Gradient of E wrt nuclear positions in reduced coordinates (gred)
  1.10883247738315E-01  0.00000000000000E+00  0.00000000000000E+00
 -1.10883247738315E-01 -0.00000000000000E+00 -0.00000000000000E+00
 Total energy (etotal) [Ha]= -1.13015066770713E+00

 Difference of energy with previous step (new-old):
           Absolute (Ha)=-1.90272E-03
           Relative     =-1.68502E-03

--- Iteration: ( 3/10) Internal Cycle: (1/1)
--------------------------------------------------------------------------------

---SELF-CONSISTENT-FIELD CONVERGENCE--------------------------------------------

--- !BeginCycle
iteration_state: {dtset: 11, itime: 3, icycle: 1, }
solver: {iscf: 7, nstep: 10, nline: 4, wfoptalg: 0, }
tolerances: {toldff: 5.00E-05, }
...

     iter   Etot(hartree)      deltaE(h)  residm     vres2    diffor    maxfor
 ETOT  1  -1.1304980739669    -1.130E+00 7.739E-11 1.495E-02 1.087E-02 2.989E-03
 ETOT  2  -1.1305054476067    -7.374E-06 7.982E-14 3.363E-04 5.643E-04 2.425E-03
 ETOT  3  -1.1305057511668    -3.036E-07 1.747E-10 4.812E-05 2.322E-04 2.657E-03
 ETOT  4  -1.1305057679484    -1.678E-08 5.956E-12 1.485E-06 4.067E-05 2.616E-03
 ETOT  5  -1.1305057680284    -8.000E-11 4.051E-14 5.133E-09 5.941E-07 2.617E-03

 At SCF step    5, forces are converged : 
  for the second time, max diff in force=  5.941E-07 < toldff=  5.000E-05

 Cartesian components of stress tensor (hartree/bohr^3)
  sigma(1 1)=  1.36227500E-04  sigma(3 2)=  0.00000000E+00
  sigma(2 2)=  1.10732658E-04  sigma(3 1)=  0.00000000E+00
  sigma(3 3)=  1.10732658E-04  sigma(2 1)=  0.00000000E+00


--- !ResultsGS
iteration_state: {dtset: 11, itime: 3, icycle: 1, }
comment   : Summary of ground state results
lattice_vectors:
- [  8.0000000,   0.0000000,   0.0000000, ]
- [  0.0000000,   8.0000000,   0.0000000, ]
- [  0.0000000,   0.0000000,   8.0000000, ]
lattice_lengths: [   8.00000,    8.00000,    8.00000, ]
lattice_angles: [ 90.000,  90.000,  90.000, ] # degrees, (23, 13, 12)
lattice_volume:   5.1200000E+02
convergence: {deltae: -8.000E-11, res2:  5.133E-09, residm:  4.051E-14, diffor:  5.941E-07, }
etotal    :  -1.13050577E+00
entropy   :   0.00000000E+00
fermie    :  -3.69264648E-01
cartesian_stress_tensor: # hartree/bohr^3
- [  1.36227500E-04,   0.00000000E+00,   0.00000000E+00, ]
- [  0.00000000E+00,   1.10732658E-04,   0.00000000E+00, ]
- [  0.00000000E+00,   0.00000000E+00,   1.10732658E-04, ]
pressure_GPa:  -3.5079E+00
xred      :
- [ -9.4951E-02,   0.0000E+00,   0.0000E+00,  H]
- [  9.4951E-02,   0.0000E+00,   0.0000E+00,  H]
cartesian_forces: # hartree/bohr
- [ -2.61690051E-03,  -0.00000000E+00,  -0.00000000E+00, ]
- [  2.61690051E-03,  -0.00000000E+00,  -0.00000000E+00, ]
force_length_stats: {min:   2.61690051E-03, max:   2.61690051E-03, mean:   2.61690051E-03, }
...

 Integrated electronic density in atomic spheres:
 ------------------------------------------------
 Atom  Sphere_radius  Integrated_density
    1        2.00000          1.35962974
    2        2.00000          1.35962974

---OUTPUT-----------------------------------------------------------------------

 Cartesian coordinates (xcart) [bohr]
 -7.59608711041647E-01  0.00000000000000E+00  0.00000000000000E+00
  7.59608711041647E-01  0.00000000000000E+00  0.00000000000000E+00
 Reduced coordinates (xred)
 -9.49510888802059E-02  0.00000000000000E+00  0.00000000000000E+00
  9.49510888802059E-02  0.00000000000000E+00  0.00000000000000E+00
 Cartesian forces (fcart) [Ha/bohr]; max,rms= 2.61690E-03 1.51087E-03 (free atoms)
 -2.61690050733353E-03 -0.00000000000000E+00 -0.00000000000000E+00
  2.61690050733353E-03 -0.00000000000000E+00 -0.00000000000000E+00
 Gradient of E wrt nuclear positions in reduced coordinates (gred)
  2.09352040586682E-02  0.00000000000000E+00  0.00000000000000E+00
 -2.09352040586682E-02 -0.00000000000000E+00 -0.00000000000000E+00
 Total energy (etotal) [Ha]= -1.13050576802841E+00

 Difference of energy with previous step (new-old):
           Absolute (Ha)=-3.55100E-04
           Relative     =-3.14157E-04

--- Iteration: ( 4/10) Internal Cycle: (1/1)
--------------------------------------------------------------------------------

---SELF-CONSISTENT-FIELD CONVERGENCE--------------------------------------------

--- !BeginCycle
iteration_state: {dtset: 11, itime: 4, icycle: 1, }
solver: {iscf: 7, nstep: 10, nline: 4, wfoptalg: 0, }
tolerances: {toldff: 5.00E-05, }
...

     iter   Etot(hartree)      deltaE(h)  residm     vres2    diffor    maxfor
 ETOT  1  -1.1305198260676    -1.131E+00 3.978E-12 7.922E-04 2.297E-03 3.202E-04
 ETOT  2  -1.1305202166009    -3.905E-07 4.070E-15 1.774E-05 1.328E-04 1.874E-04
 ETOT  3  -1.1305202326771    -1.608E-08 9.206E-12 2.498E-06 5.315E-05 2.406E-04
 ETOT  4  -1.1305202335452    -8.681E-10 3.077E-13 7.995E-08 9.173E-06 2.314E-04
[...]
            tnons41    0.0000000  0.0000000  0.0000000     0.0000000  0.0000000  0.0000000
                       0.0000000  0.0000000  0.0000000     0.0000000  0.0000000  0.0000000
                       0.0000000  0.0000000  0.0000000     0.0000000  0.0000000  0.0000000
                       0.0000000  0.0000000  0.0000000     0.0000000  0.0000000  0.0000000
                       0.0000000  0.0000000  0.0000000     0.0000000  0.0000000  0.0000000
                       0.0000000  0.0000000  0.0000000     0.0000000  0.0000000  0.0000000
                       0.0000000  0.0000000  0.0000000     0.0000000  0.0000000  0.0000000
                       0.0000000  0.0000000  0.0000000     0.0000000  0.0000000  0.0000000
            tnons42    0.0000000  0.0000000  0.0000000     0.0000000  0.0000000  0.0000000
                       0.0000000  0.0000000  0.0000000     0.0000000  0.0000000  0.0000000
                       0.0000000  0.0000000  0.0000000     0.0000000  0.0000000  0.0000000
                       0.0000000  0.0000000  0.0000000     0.0000000  0.0000000  0.0000000
                       0.0000000  0.0000000  0.0000000     0.0000000  0.0000000  0.0000000
                       0.0000000  0.0000000  0.0000000     0.0000000  0.0000000  0.0000000
                       0.0000000  0.0000000  0.0000000     0.0000000  0.0000000  0.0000000
                       0.0000000  0.0000000  0.0000000     0.0000000  0.0000000  0.0000000
                       0.0000000  0.0000000  0.0000000     0.0000000  0.0000000  0.0000000
                       0.0000000  0.0000000  0.0000000     0.0000000  0.0000000  0.0000000
                       0.0000000  0.0000000  0.0000000     0.0000000  0.0000000  0.0000000
                       0.0000000  0.0000000  0.0000000     0.0000000  0.0000000  0.0000000
                       0.0000000  0.0000000  0.0000000     0.0000000  0.0000000  0.0000000
                       0.0000000  0.0000000  0.0000000     0.0000000  0.0000000  0.0000000
                       0.0000000  0.0000000  0.0000000     0.0000000  0.0000000  0.0000000
                       0.0000000  0.0000000  0.0000000     0.0000000  0.0000000  0.0000000
                       0.0000000  0.0000000  0.0000000     0.0000000  0.0000000  0.0000000
                       0.0000000  0.0000000  0.0000000     0.0000000  0.0000000  0.0000000
                       0.0000000  0.0000000  0.0000000     0.0000000  0.0000000  0.0000000
                       0.0000000  0.0000000  0.0000000     0.0000000  0.0000000  0.0000000
                       0.0000000  0.0000000  0.0000000     0.0000000  0.0000000  0.0000000
                       0.0000000  0.0000000  0.0000000     0.0000000  0.0000000  0.0000000
                       0.0000000  0.0000000  0.0000000     0.0000000  0.0000000  0.0000000
                       0.0000000  0.0000000  0.0000000     0.0000000  0.0000000  0.0000000
            tnons51    0.0000000  0.0000000  0.0000000     0.0000000  0.0000000  0.0000000
                       0.0000000  0.0000000  0.0000000     0.0000000  0.0000000  0.0000000
                       0.0000000  0.0000000  0.0000000     0.0000000  0.0000000  0.0000000
                       0.0000000  0.0000000  0.0000000     0.0000000  0.0000000  0.0000000
                       0.0000000  0.0000000  0.0000000     0.0000000  0.0000000  0.0000000
                       0.0000000  0.0000000  0.0000000     0.0000000  0.0000000  0.0000000
                       0.0000000  0.0000000  0.0000000     0.0000000  0.0000000  0.0000000
                       0.0000000  0.0000000  0.0000000     0.0000000  0.0000000  0.0000000
            tnons52    0.0000000  0.0000000  0.0000000     0.0000000  0.0000000  0.0000000
                       0.0000000  0.0000000  0.0000000     0.0000000  0.0000000  0.0000000
                       0.0000000  0.0000000  0.0000000     0.0000000  0.0000000  0.0000000
                       0.0000000  0.0000000  0.0000000     0.0000000  0.0000000  0.0000000
                       0.0000000  0.0000000  0.0000000     0.0000000  0.0000000  0.0000000
                       0.0000000  0.0000000  0.0000000     0.0000000  0.0000000  0.0000000
                       0.0000000  0.0000000  0.0000000     0.0000000  0.0000000  0.0000000
                       0.0000000  0.0000000  0.0000000     0.0000000  0.0000000  0.0000000
                       0.0000000  0.0000000  0.0000000     0.0000000  0.0000000  0.0000000
                       0.0000000  0.0000000  0.0000000     0.0000000  0.0000000  0.0000000
                       0.0000000  0.0000000  0.0000000     0.0000000  0.0000000  0.0000000
                       0.0000000  0.0000000  0.0000000     0.0000000  0.0000000  0.0000000
                       0.0000000  0.0000000  0.0000000     0.0000000  0.0000000  0.0000000
                       0.0000000  0.0000000  0.0000000     0.0000000  0.0000000  0.0000000
                       0.0000000  0.0000000  0.0000000     0.0000000  0.0000000  0.0000000
                       0.0000000  0.0000000  0.0000000     0.0000000  0.0000000  0.0000000
                       0.0000000  0.0000000  0.0000000     0.0000000  0.0000000  0.0000000
                       0.0000000  0.0000000  0.0000000     0.0000000  0.0000000  0.0000000
                       0.0000000  0.0000000  0.0000000     0.0000000  0.0000000  0.0000000
                       0.0000000  0.0000000  0.0000000     0.0000000  0.0000000  0.0000000
                       0.0000000  0.0000000  0.0000000     0.0000000  0.0000000  0.0000000
                       0.0000000  0.0000000  0.0000000     0.0000000  0.0000000  0.0000000
                       0.0000000  0.0000000  0.0000000     0.0000000  0.0000000  0.0000000
                       0.0000000  0.0000000  0.0000000     0.0000000  0.0000000  0.0000000
            tnons61    0.0000000  0.0000000  0.0000000     0.0000000  0.0000000  0.0000000
                       0.0000000  0.0000000  0.0000000     0.0000000  0.0000000  0.0000000
                       0.0000000  0.0000000  0.0000000     0.0000000  0.0000000  0.0000000
                       0.0000000  0.0000000  0.0000000     0.0000000  0.0000000  0.0000000
                       0.0000000  0.0000000  0.0000000     0.0000000  0.0000000  0.0000000
                       0.0000000  0.0000000  0.0000000     0.0000000  0.0000000  0.0000000
                       0.0000000  0.0000000  0.0000000     0.0000000  0.0000000  0.0000000
                       0.0000000  0.0000000  0.0000000     0.0000000  0.0000000  0.0000000
            tnons62    0.0000000  0.0000000  0.0000000     0.0000000  0.0000000  0.0000000
                       0.0000000  0.0000000  0.0000000     0.0000000  0.0000000  0.0000000
                       0.0000000  0.0000000  0.0000000     0.0000000  0.0000000  0.0000000
                       0.0000000  0.0000000  0.0000000     0.0000000  0.0000000  0.0000000
                       0.0000000  0.0000000  0.0000000     0.0000000  0.0000000  0.0000000
                       0.0000000  0.0000000  0.0000000     0.0000000  0.0000000  0.0000000
                       0.0000000  0.0000000  0.0000000     0.0000000  0.0000000  0.0000000
                       0.0000000  0.0000000  0.0000000     0.0000000  0.0000000  0.0000000
                       0.0000000  0.0000000  0.0000000     0.0000000  0.0000000  0.0000000
                       0.0000000  0.0000000  0.0000000     0.0000000  0.0000000  0.0000000
                       0.0000000  0.0000000  0.0000000     0.0000000  0.0000000  0.0000000
                       0.0000000  0.0000000  0.0000000     0.0000000  0.0000000  0.0000000
                       0.0000000  0.0000000  0.0000000     0.0000000  0.0000000  0.0000000
                       0.0000000  0.0000000  0.0000000     0.0000000  0.0000000  0.0000000
                       0.0000000  0.0000000  0.0000000     0.0000000  0.0000000  0.0000000
                       0.0000000  0.0000000  0.0000000     0.0000000  0.0000000  0.0000000
                       0.0000000  0.0000000  0.0000000     0.0000000  0.0000000  0.0000000
                       0.0000000  0.0000000  0.0000000     0.0000000  0.0000000  0.0000000
                       0.0000000  0.0000000  0.0000000     0.0000000  0.0000000  0.0000000
                       0.0000000  0.0000000  0.0000000     0.0000000  0.0000000  0.0000000
                       0.0000000  0.0000000  0.0000000     0.0000000  0.0000000  0.0000000
                       0.0000000  0.0000000  0.0000000     0.0000000  0.0000000  0.0000000
                       0.0000000  0.0000000  0.0000000     0.0000000  0.0000000  0.0000000
                       0.0000000  0.0000000  0.0000000     0.0000000  0.0000000  0.0000000
           toldfe11    0.00000000E+00 Hartree
           toldfe12    1.00000000E-06 Hartree
           toldfe21    0.00000000E+00 Hartree
           toldfe22    1.00000000E-06 Hartree
           toldfe31    0.00000000E+00 Hartree
           toldfe32    1.00000000E-06 Hartree
           toldfe41    0.00000000E+00 Hartree
           toldfe42    1.00000000E-06 Hartree
           toldfe51    0.00000000E+00 Hartree
           toldfe52    1.00000000E-06 Hartree
           toldfe61    0.00000000E+00 Hartree
           toldfe62    1.00000000E-06 Hartree
           toldff11    5.00000000E-05
           toldff12    0.00000000E+00
           toldff21    5.00000000E-05
           toldff22    0.00000000E+00
           toldff31    5.00000000E-05
           toldff32    0.00000000E+00
           toldff41    5.00000000E-05
           toldff42    0.00000000E+00
           toldff51    5.00000000E-05
           toldff52    0.00000000E+00
           toldff61    5.00000000E-05
           toldff62    0.00000000E+00
           tolmxf11    5.00000000E-04
           tolmxf12    5.00000000E-05
           tolmxf21    5.00000000E-04
           tolmxf22    5.00000000E-05
           tolmxf31    5.00000000E-04
           tolmxf32    5.00000000E-05
           tolmxf41    5.00000000E-04
           tolmxf42    5.00000000E-05
           tolmxf51    5.00000000E-04
           tolmxf52    5.00000000E-05
           tolmxf61    5.00000000E-04
           tolmxf62    5.00000000E-05
            typat11    1  1
            typat12    1
            typat21    1  1
            typat22    1
            typat31    1  1
            typat32    1
            typat41    1  1
            typat42    1
            typat51    1  1
            typat52    1
            typat61    1  1
            typat62    1
           xangst11   -4.0466789280E-01  0.0000000000E+00  0.0000000000E+00
                       4.0466789280E-01  0.0000000000E+00  0.0000000000E+00
           xangst12    0.0000000000E+00  0.0000000000E+00  0.0000000000E+00
           xangst21   -3.9321660365E-01  0.0000000000E+00  0.0000000000E+00
                       3.9321660365E-01  0.0000000000E+00  0.0000000000E+00
           xangst22    0.0000000000E+00  0.0000000000E+00  0.0000000000E+00
           xangst31   -3.9041850460E-01  0.0000000000E+00  0.0000000000E+00
                       3.9041850460E-01  0.0000000000E+00  0.0000000000E+00
           xangst32    0.0000000000E+00  0.0000000000E+00  0.0000000000E+00
           xangst41   -3.9050231588E-01  0.0000000000E+00  0.0000000000E+00
                       3.9050231588E-01  0.0000000000E+00  0.0000000000E+00
           xangst42    0.0000000000E+00  0.0000000000E+00  0.0000000000E+00
           xangst51   -3.9022837456E-01  0.0000000000E+00  0.0000000000E+00
                       3.9022837456E-01  0.0000000000E+00  0.0000000000E+00
           xangst52    0.0000000000E+00  0.0000000000E+00  0.0000000000E+00
           xangst61   -3.9017954552E-01  0.0000000000E+00  0.0000000000E+00
                       3.9017954552E-01  0.0000000000E+00  0.0000000000E+00
           xangst62    0.0000000000E+00  0.0000000000E+00  0.0000000000E+00
            xcart11   -7.6471149217E-01  0.0000000000E+00  0.0000000000E+00
                       7.6471149217E-01  0.0000000000E+00  0.0000000000E+00
            xcart12    0.0000000000E+00  0.0000000000E+00  0.0000000000E+00
            xcart21   -7.4307169181E-01  0.0000000000E+00  0.0000000000E+00
                       7.4307169181E-01  0.0000000000E+00  0.0000000000E+00
            xcart22    0.0000000000E+00  0.0000000000E+00  0.0000000000E+00
            xcart31   -7.3778405090E-01  0.0000000000E+00  0.0000000000E+00
                       7.3778405090E-01  0.0000000000E+00  0.0000000000E+00
            xcart32    0.0000000000E+00  0.0000000000E+00  0.0000000000E+00
            xcart41   -7.3794243127E-01  0.0000000000E+00  0.0000000000E+00
                       7.3794243127E-01  0.0000000000E+00  0.0000000000E+00
            xcart42    0.0000000000E+00  0.0000000000E+00  0.0000000000E+00
            xcart51   -7.3742475720E-01  0.0000000000E+00  0.0000000000E+00
                       7.3742475720E-01  0.0000000000E+00  0.0000000000E+00
            xcart52    0.0000000000E+00  0.0000000000E+00  0.0000000000E+00
            xcart61   -7.3733248368E-01  0.0000000000E+00  0.0000000000E+00
                       7.3733248368E-01  0.0000000000E+00  0.0000000000E+00
            xcart62    0.0000000000E+00  0.0000000000E+00  0.0000000000E+00
             xred11   -9.5588936521E-02  0.0000000000E+00  0.0000000000E+00
                       9.5588936521E-02  0.0000000000E+00  0.0000000000E+00
             xred12    0.0000000000E+00  0.0000000000E+00  0.0000000000E+00
             xred21   -7.4307169181E-02  0.0000000000E+00  0.0000000000E+00
                       7.4307169181E-02  0.0000000000E+00  0.0000000000E+00
             xred22    0.0000000000E+00  0.0000000000E+00  0.0000000000E+00
             xred31   -6.1482004242E-02  0.0000000000E+00  0.0000000000E+00
                       6.1482004242E-02  0.0000000000E+00  0.0000000000E+00
             xred32    0.0000000000E+00  0.0000000000E+00  0.0000000000E+00
             xred41   -5.2710173662E-02  0.0000000000E+00  0.0000000000E+00
                       5.2710173662E-02  0.0000000000E+00  0.0000000000E+00
             xred42    0.0000000000E+00  0.0000000000E+00  0.0000000000E+00
             xred51   -4.6089047325E-02  0.0000000000E+00  0.0000000000E+00
                       4.6089047325E-02  0.0000000000E+00  0.0000000000E+00
             xred52    0.0000000000E+00  0.0000000000E+00  0.0000000000E+00
             xred61   -4.0962915760E-02  0.0000000000E+00  0.0000000000E+00
                       4.0962915760E-02  0.0000000000E+00  0.0000000000E+00
             xred62    0.0000000000E+00  0.0000000000E+00  0.0000000000E+00
            znucl        1.00000

================================================================================


- Timing analysis has been suppressed with timopt=0



================================================================================

 Suggested references for the acknowledgment of ABINIT usage.

 The users of ABINIT have little formal obligations with respect to the ABINIT group
 (those specified in the GNU General Public License, http://www.gnu.org/copyleft/gpl.txt).
 However, it is common practice in the scientific literature,
 to acknowledge the efforts of people that have made the research possible.
 In this spirit, please find below suggested citations of work written by ABINIT developers,
 corresponding to implementations inside of ABINIT that you have used in the present run.
 Note also that it will be of great value to readers of publications presenting these results,
 to read papers enabling them to understand the theoretical formalism and details
 of the ABINIT implementation.
 For information on why they are suggested, see also https://docs.abinit.org/theory/acknowledgments.
-
- [1] Libxc: A library of exchange and correlation functionals for density functional theory.
- M.A.L. Marques, M.J.T. Oliveira, T. Burnus, Computer Physics Communications 183, 2227 (2012).
- Comment: to be cited when LibXC is used (negative value of ixc)
- Strong suggestion to cite this paper.
- DOI and bibtex: see https://docs.abinit.org/theory/bibliography/#marques2012
-
- [2] The Abinit project: Impact, environment and recent developments.
- Computer Phys. Comm. 248, 107042 (2020).
- X.Gonze, B. Amadon, G. Antonius, F.Arnardi, L.Baguet, J.-M.Beuken,
- J.Bieder, F.Bottin, J.Bouchet, E.Bousquet, N.Brouwer, F.Bruneval,
- G.Brunin, T.Cavignac, J.-B. Charraud, Wei Chen, M.Cote, S.Cottenier,
- J.Denier, G.Geneste, Ph.Ghosez, M.Giantomassi, Y.Gillet, O.Gingras,
- D.R.Hamann, G.Hautier, Xu He, N.Helbig, N.Holzwarth, Y.Jia, F.Jollet,
- W.Lafargue-Dit-Hauret, K.Lejaeghere, M.A.L.Marques, A.Martin, C.Martins,
- H.P.C. Miranda, F.Naccarato, K. Persson, G.Petretto, V.Planes, Y.Pouillon,
- S.Prokhorenko, F.Ricci, G.-M.Rignanese, A.H.Romero, M.M.Schmitt, M.Torrent,
- M.J.van Setten, B.Van Troeye, M.J.Verstraete, G.Zerah and J.W.Zwanzig
- Comment: the fifth generic paper describing the ABINIT project.
- Note that a version of this paper, that is not formatted for Computer Phys. Comm. 
- is available at https://www.abinit.org/sites/default/files/ABINIT20.pdf .
- The licence allows the authors to put it on the Web.
- DOI and bibtex: see https://docs.abinit.org/theory/bibliography/#gonze2020
-
- [3] Optimized norm-conserving Vanderbilt pseudopotentials.
- D.R. Hamann, Phys. Rev. B 88, 085117 (2013).
- Comment: Some pseudopotential generated using the ONCVPSP code were used.
- DOI and bibtex: see https://docs.abinit.org/theory/bibliography/#hamann2013
-
- [4] ABINIT: Overview, and focus on selected capabilities
- J. Chem. Phys. 152, 124102 (2020).
- A. Romero, D.C. Allan, B. Amadon, G. Antonius, T. Applencourt, L.Baguet,
- J.Bieder, F.Bottin, J.Bouchet, E.Bousquet, F.Bruneval,
- G.Brunin, D.Caliste, M.Cote,
- J.Denier, C. Dreyer, Ph.Ghosez, M.Giantomassi, Y.Gillet, O.Gingras,
- D.R.Hamann, G.Hautier, F.Jollet, G. Jomard,
- A.Martin, 
- H.P.C. Miranda, F.Naccarato, G.Petretto, N.A. Pike, V.Planes,
- S.Prokhorenko, T. Rangel, F.Ricci, G.-M.Rignanese, M.Royo, M.Stengel, M.Torrent,
- M.J.van Setten, B.Van Troeye, M.J.Verstraete, J.Wiktor, J.W.Zwanziger, and X.Gonze.
- Comment: a global overview of ABINIT, with focus on selected capabilities .
- Note that a version of this paper, that is not formatted for J. Chem. Phys 
- is available at https://www.abinit.org/sites/default/files/ABINIT20_JPC.pdf .
- The licence allows the authors to put it on the Web.
- DOI and bibtex: see https://docs.abinit.org/theory/bibliography/#romero2020
-
- [5] Recent developments in the ABINIT software package.
- Computer Phys. Comm. 205, 106 (2016).
- X.Gonze, F.Jollet, F.Abreu Araujo, D.Adams, B.Amadon, T.Applencourt,
- C.Audouze, J.-M.Beuken, J.Bieder, A.Bokhanchuk, E.Bousquet, F.Bruneval
- D.Caliste, M.Cote, F.Dahm, F.Da Pieve, M.Delaveau, M.Di Gennaro,
- B.Dorado, C.Espejo, G.Geneste, L.Genovese, A.Gerossier, M.Giantomassi,
- Y.Gillet, D.R.Hamann, L.He, G.Jomard, J.Laflamme Janssen, S.Le Roux,
- A.Levitt, A.Lherbier, F.Liu, I.Lukacevic, A.Martin, C.Martins,
- M.J.T.Oliveira, S.Ponce, Y.Pouillon, T.Rangel, G.-M.Rignanese,
- A.H.Romero, B.Rousseau, O.Rubel, A.A.Shukri, M.Stankovski, M.Torrent,
- M.J.Van Setten, B.Van Troeye, M.J.Verstraete, D.Waroquier, J.Wiktor,
- B.Xu, A.Zhou, J.W.Zwanziger.
- Comment: the fourth generic paper describing the ABINIT project.
- Note that a version of this paper, that is not formatted for Computer Phys. Comm. 
- is available at https://www.abinit.org/sites/default/files/ABINIT16.pdf .
- The licence allows the authors to put it on the Web.
- DOI and bibtex: see https://docs.abinit.org/theory/bibliography/#gonze2016
-
- Proc.   0 individual time (sec): cpu=          8.2  wall=          8.3

================================================================================

 Calculation completed.
.Delivered 151 WARNINGs and  29 COMMENTs to log file.
+Overall time at end (sec) : cpu=          8.2  wall=          8.3
