
.Version 9.3.0 of ABINIT 
.(sequential version, prepared for a x86_64_linux_gnu9.2 computer) 

.Copyright (C) 1998-2020 ABINIT group . 
 ABINIT comes with ABSOLUTELY NO WARRANTY.
 It is free software, and you are welcome to redistribute it
 under certain conditions (GNU General Public License,
 see ~abinit/COPYING or http://www.gnu.org/copyleft/gpl.txt).

 ABINIT is a project of the Universite Catholique de Louvain,
 Corning Inc. and other collaborators, see ~abinit/doc/developers/contributors.txt .
 Please read https://docs.abinit.org/theory/acknowledgments for suggested
 acknowledgments of the ABINIT effort.
 For more information, see https://www.abinit.org .

.Starting date : Fri 25 Sep 2020.
- ( at 10h39 )
  
- input  file    -> /home/buildbot/bb/ABINIT/abiref_gnu_9.2_serial/marm3.14_ecut/tests/TestBot_MPI1/tutorial_tbs_1-tbs_2-tbs_3-tbs_4/tbs_3.in
- output file    -> tbs_3.out
- root for input  files -> tbs_3i
- root for output files -> tbs_3o


 DATASET    1 : space group Fd -3 m (#227); Bravais cF (face-center cubic)
================================================================================
 Values of the parameters that define the memory need for DATASET  1.
     intxc =       0    ionmov =       0      iscf =       7    lmnmax =       2
     lnmax =       2     mgfft =      20  mpssoang =       3    mqgrid =    3001
     natom =       2  nloc_mem =       1    nspden =       1   nspinor =       1
    nsppol =       1      nsym =      48    n1xccc =    2501    ntypat =       1
    occopt =       1   xclevel =       1
-    mband =           6        mffmem =           1         mkmem =          64
       mpw =         298          nfft =        8000          nkpt =          64
================================================================================
P This job should need less than                       4.843 Mbytes of memory.
  Rough estimation (10% accuracy) of disk space for files :
_ WF disk file :      1.748 Mbytes ; DEN or POT disk file :      0.063 Mbytes.
================================================================================


 DATASET    2 : space group Fd -3 m (#227); Bravais cF (face-center cubic)
================================================================================
 Values of the parameters that define the memory need for DATASET  2.
     intxc =       0    ionmov =       0      iscf =       7    lmnmax =       2
     lnmax =       2     mgfft =      20  mpssoang =       3    mqgrid =    3001
     natom =       2  nloc_mem =       1    nspden =       1   nspinor =       1
    nsppol =       1      nsym =      48    n1xccc =    2501    ntypat =       1
    occopt =       1   xclevel =       1
-    mband =           7        mffmem =           1         mkmem =          64
       mpw =         298          nfft =        8000          nkpt =          64
================================================================================
P This job should need less than                       5.144 Mbytes of memory.
  Rough estimation (10% accuracy) of disk space for files :
_ WF disk file :      2.039 Mbytes ; DEN or POT disk file :      0.063 Mbytes.
================================================================================

--------------------------------------------------------------------------------
------------- Echo of variables that govern the present computation ------------
--------------------------------------------------------------------------------
-
- outvars: echo of selected default values                                      
-   iomode0 =  0 , fftalg0 =312 , wfoptalg0 =  0
-
- outvars: echo of global parameters not present in the input file              
-  max_nthreads =    0
-
 -outvars: echo values of preprocessed input variables --------
            acell      1.0217000000E+01  1.0217000000E+01  1.0217000000E+01 Bohr
              amu      2.80855000E+01
  bs_coulomb_term          10
     bs_freq_mesh      0.00000000E+00  2.20495952E-01  7.34986508E-04 Hartree
   bs_haydock_tol      5.00000000E-02  0.00000000E+00
        bs_loband1          3
        bs_loband2          2
      chksymbreak           0
           diemac      1.20000000E+01
             ecut      8.00000000E+00 Hartree
          ecuteps      2.00000000E+00 Hartree
          ecutwfn      8.00000000E+00 Hartree
-          fftalg         312
      gw_icutcoul           3
           irdscr           1
           irdwfk           1
           jdtset        1    2
              kpt      2.75000000E-02  5.25000000E-02  7.75000000E-02
                       2.77500000E-01  5.25000000E-02  7.75000000E-02
                      -4.72500000E-01  5.25000000E-02  7.75000000E-02
                      -2.22500000E-01  5.25000000E-02  7.75000000E-02
                       2.75000000E-02  3.02500000E-01  7.75000000E-02
                       2.77500000E-01  3.02500000E-01  7.75000000E-02
                      -4.72500000E-01  3.02500000E-01  7.75000000E-02
                      -2.22500000E-01  3.02500000E-01  7.75000000E-02
                       2.75000000E-02 -4.47500000E-01  7.75000000E-02
                       2.77500000E-01 -4.47500000E-01  7.75000000E-02
                      -4.72500000E-01 -4.47500000E-01  7.75000000E-02
                      -2.22500000E-01 -4.47500000E-01  7.75000000E-02
                       2.75000000E-02 -1.97500000E-01  7.75000000E-02
                       2.77500000E-01 -1.97500000E-01  7.75000000E-02
                      -4.72500000E-01 -1.97500000E-01  7.75000000E-02
                      -2.22500000E-01 -1.97500000E-01  7.75000000E-02
                       2.75000000E-02  5.25000000E-02  3.27500000E-01
                       2.77500000E-01  5.25000000E-02  3.27500000E-01
                      -4.72500000E-01  5.25000000E-02  3.27500000E-01
                      -2.22500000E-01  5.25000000E-02  3.27500000E-01
                       2.75000000E-02  3.02500000E-01  3.27500000E-01
                       2.77500000E-01  3.02500000E-01  3.27500000E-01
                      -4.72500000E-01  3.02500000E-01  3.27500000E-01
                      -2.22500000E-01  3.02500000E-01  3.27500000E-01
                       2.75000000E-02 -4.47500000E-01  3.27500000E-01
                       2.77500000E-01 -4.47500000E-01  3.27500000E-01
                      -4.72500000E-01 -4.47500000E-01  3.27500000E-01
                      -2.22500000E-01 -4.47500000E-01  3.27500000E-01
                       2.75000000E-02 -1.97500000E-01  3.27500000E-01
                       2.77500000E-01 -1.97500000E-01  3.27500000E-01
                      -4.72500000E-01 -1.97500000E-01  3.27500000E-01
                      -2.22500000E-01 -1.97500000E-01  3.27500000E-01
                       2.75000000E-02  5.25000000E-02 -4.22500000E-01
                       2.77500000E-01  5.25000000E-02 -4.22500000E-01
                      -4.72500000E-01  5.25000000E-02 -4.22500000E-01
                      -2.22500000E-01  5.25000000E-02 -4.22500000E-01
                       2.75000000E-02  3.02500000E-01 -4.22500000E-01
                       2.77500000E-01  3.02500000E-01 -4.22500000E-01
                      -4.72500000E-01  3.02500000E-01 -4.22500000E-01
                      -2.22500000E-01  3.02500000E-01 -4.22500000E-01
                       2.75000000E-02 -4.47500000E-01 -4.22500000E-01
                       2.77500000E-01 -4.47500000E-01 -4.22500000E-01
                      -4.72500000E-01 -4.47500000E-01 -4.22500000E-01
                      -2.22500000E-01 -4.47500000E-01 -4.22500000E-01
                       2.75000000E-02 -1.97500000E-01 -4.22500000E-01
                       2.77500000E-01 -1.97500000E-01 -4.22500000E-01
                      -4.72500000E-01 -1.97500000E-01 -4.22500000E-01
                      -2.22500000E-01 -1.97500000E-01 -4.22500000E-01
                       2.75000000E-02  5.25000000E-02 -1.72500000E-01
                       2.77500000E-01  5.25000000E-02 -1.72500000E-01
                       outvar_i_n : Printing only first  50 k-points.
         kptrlatt        4    0    0      0    4    0      0    0    4
          kptrlen      2.88980399E+01
       mbpt_sciss      2.93994603E-02 Hartree
P           mkmem          64
            natom           2
            nband1          6
            nband2          7
           ndtset           2
            ngfft          20      20      20
             nkpt          64
           npweps          27
           npwwfn         283
            nstep          50
             nsym          48
           ntypat           1
              occ1     2.000000  2.000000  2.000000  2.000000  0.000000  0.000000
              occ2     2.000000  2.000000  2.000000  2.000000  0.000000  0.000000
                       0.000000
        optdriver          99
            rprim      0.0000000000E+00  5.0000000000E-01  5.0000000000E-01
                       5.0000000000E-01  0.0000000000E+00  5.0000000000E-01
                       5.0000000000E-01  5.0000000000E-01  0.0000000000E+00
           shiftk      1.10000000E-01  2.10000000E-01  3.10000000E-01
          spgroup         227
           symrel      1  0  0   0  1  0   0  0  1      -1  0  0   0 -1  0   0  0 -1
                       0 -1  1   0 -1  0   1 -1  0       0  1 -1   0  1  0  -1  1  0
                      -1  0  0  -1  0  1  -1  1  0       1  0  0   1  0 -1   1 -1  0
                       0  1 -1   1  0 -1   0  0 -1       0 -1  1  -1  0  1   0  0  1
                      -1  0  0  -1  1  0  -1  0  1       1  0  0   1 -1  0   1  0 -1
                       0 -1  1   1 -1  0   0 -1  0       0  1 -1  -1  1  0   0  1  0
                       1  0  0   0  0  1   0  1  0      -1  0  0   0  0 -1   0 -1  0
                       0  1 -1   0  0 -1   1  0 -1       0 -1  1   0  0  1  -1  0  1
                      -1  0  1  -1  1  0  -1  0  0       1  0 -1   1 -1  0   1  0  0
                       0 -1  0   1 -1  0   0 -1  1       0  1  0  -1  1  0   0  1 -1
                       1  0 -1   0  0 -1   0  1 -1      -1  0  1   0  0  1   0 -1  1
                       0  1  0   0  0  1   1  0  0       0 -1  0   0  0 -1  -1  0  0
                       1  0 -1   0  1 -1   0  0 -1      -1  0  1   0 -1  1   0  0  1
                       0 -1  0   0 -1  1   1 -1  0       0  1  0   0  1 -1  -1  1  0
                      -1  0  1  -1  0  0  -1  1  0       1  0 -1   1  0  0   1 -1  0
                       0  1  0   1  0  0   0  0  1       0 -1  0  -1  0  0   0  0 -1
                       0  0 -1   0  1 -1   1  0 -1       0  0  1   0 -1  1  -1  0  1
                       1 -1  0   0 -1  1   0 -1  0      -1  1  0   0  1 -1   0  1  0
                       0  0  1   1  0  0   0  1  0       0  0 -1  -1  0  0   0 -1  0
                      -1  1  0  -1  0  0  -1  0  1       1 -1  0   1  0  0   1  0 -1
                       0  0  1   0  1  0   1  0  0       0  0 -1   0 -1  0  -1  0  0
                       1 -1  0   0 -1  0   0 -1  1      -1  1  0   0  1  0   0  1 -1
                       0  0 -1   1  0 -1   0  1 -1       0  0  1  -1  0  1   0 -1  1
                      -1  1  0  -1  0  1  -1  0  0       1 -1  0   1  0 -1   1  0  0
            tnons      0.0000000  0.0000000  0.0000000     0.2500000  0.2500000  0.2500000
                       0.0000000  0.0000000  0.0000000     0.2500000  0.2500000  0.2500000
                       0.0000000  0.0000000  0.0000000     0.2500000  0.2500000  0.2500000
                       0.0000000  0.0000000  0.0000000     0.2500000  0.2500000  0.2500000
                       0.0000000  0.0000000  0.0000000     0.2500000  0.2500000  0.2500000
                       0.0000000  0.0000000  0.0000000     0.2500000  0.2500000  0.2500000
                       0.0000000  0.0000000  0.0000000     0.2500000  0.2500000  0.2500000
                       0.0000000  0.0000000  0.0000000     0.2500000  0.2500000  0.2500000
                       0.0000000  0.0000000  0.0000000     0.2500000  0.2500000  0.2500000
                       0.0000000  0.0000000  0.0000000     0.2500000  0.2500000  0.2500000
                       0.0000000  0.0000000  0.0000000     0.2500000  0.2500000  0.2500000
                       0.0000000  0.0000000  0.0000000     0.2500000  0.2500000  0.2500000
                       0.0000000  0.0000000  0.0000000     0.2500000  0.2500000  0.2500000
                       0.0000000  0.0000000  0.0000000     0.2500000  0.2500000  0.2500000
                       0.0000000  0.0000000  0.0000000     0.2500000  0.2500000  0.2500000
                       0.0000000  0.0000000  0.0000000     0.2500000  0.2500000  0.2500000
                       0.0000000  0.0000000  0.0000000     0.2500000  0.2500000  0.2500000
                       0.0000000  0.0000000  0.0000000     0.2500000  0.2500000  0.2500000
                       0.0000000  0.0000000  0.0000000     0.2500000  0.2500000  0.2500000
                       0.0000000  0.0000000  0.0000000     0.2500000  0.2500000  0.2500000
                       0.0000000  0.0000000  0.0000000     0.2500000  0.2500000  0.2500000
                       0.0000000  0.0000000  0.0000000     0.2500000  0.2500000  0.2500000
                       0.0000000  0.0000000  0.0000000     0.2500000  0.2500000  0.2500000
                       0.0000000  0.0000000  0.0000000     0.2500000  0.2500000  0.2500000
            typat      1  1
              wtk        0.01563    0.01563    0.01563    0.01563    0.01563    0.01563
                         0.01563    0.01563    0.01563    0.01563    0.01563    0.01563
                         0.01563    0.01563    0.01563    0.01563    0.01563    0.01563
                         0.01563    0.01563    0.01563    0.01563    0.01563    0.01563
                         0.01563    0.01563    0.01563    0.01563    0.01563    0.01563
                         0.01563    0.01563    0.01563    0.01563    0.01563    0.01563
                         0.01563    0.01563    0.01563    0.01563    0.01563    0.01563
                         0.01563    0.01563    0.01563    0.01563    0.01563    0.01563
                         0.01563    0.01563
                       outvars : Printing only first  50 k-points.
           xangst      0.0000000000E+00  0.0000000000E+00  0.0000000000E+00
                       1.3516508850E+00  1.3516508850E+00  1.3516508850E+00
            xcart      0.0000000000E+00  0.0000000000E+00  0.0000000000E+00
                       2.5542500000E+00  2.5542500000E+00  2.5542500000E+00
             xred      0.0000000000E+00  0.0000000000E+00  0.0000000000E+00
                       2.5000000000E-01  2.5000000000E-01  2.5000000000E-01
             zcut      5.51239881E-03 Hartree
            znucl       14.00000

================================================================================

 chkinp: Checking input parameters for consistency, jdtset=   1.

 chkinp: Checking input parameters for consistency, jdtset=   2.

================================================================================
== DATASET  1 ==================================================================
-   mpi_nproc: 1, omp_nthreads: -1 (-1 if OMP is not activated)


--- !DatasetInfo
iteration_state: {dtset: 1, }
dimensions: {natom: 2, nkpt: 64, mband: 6, nsppol: 1, nspinor: 1, nspden: 1, mpw: 298, }
cutoff_energies: {ecut:   8.0, pawecutdg:  -1.0, }
electrons: {nelect:   8.00000000E+00, charge:   0.00000000E+00, occopt:   1.00000000E+00, tsmear:   1.00000000E-02, }
meta: {optdriver: 99, bs_calctype: 1, bs_algorithm: 2, }
...

 Exchange-correlation functional for the present dataset will be:
  LDA: new Teter (4/93) with spin-polarized option - ixc=1
 Citation for XC functional:
  S. Goedecker, M. Teter, J. Huetter, PRB 54, 1703 (1996)

 Exciton: Calculation of dielectric properties by solving the Bethe-Salpeter equation 
 in frequency domain and reciprocal space on a transitions basis set. 
 Based on a program developed by L. Reining, V. Olevano, F. Sottile, 
 S. Albrecht, and G. Onida. Incorporated in ABINIT by M. Giantomassi. 

.Using double precision arithmetic ; gwpc =  8

 Real(R)+Recip(G) space primitive vectors, cartesian coordinates (Bohr,Bohr^-1):
 R(1)=  0.0000000  5.1085000  5.1085000  G(1)= -0.0978761  0.0978761  0.0978761
 R(2)=  5.1085000  0.0000000  5.1085000  G(2)=  0.0978761 -0.0978761  0.0978761
 R(3)=  5.1085000  5.1085000  0.0000000  G(3)=  0.0978761  0.0978761 -0.0978761
 Unit cell volume ucvol=  2.6663072E+02 bohr^3
 Angles (23,13,12)=  6.00000000E+01  6.00000000E+01  6.00000000E+01 degrees

--- Pseudopotential description ------------------------------------------------
- pspini: atom type   1  psp file is /home/buildbot/bb/ABINIT/abiref_gnu_9.2_serial/marm3.14_ecut/tests/Psps_for_tests/PseudosTM_pwteter/14si.pspnc
- pspatm: opening atomic psp file    /home/buildbot/bb/ABINIT/abiref_gnu_9.2_serial/marm3.14_ecut/tests/Psps_for_tests/PseudosTM_pwteter/14si.pspnc
-  Troullier-Martins psp for element  Si        Thu Oct 27 17:31:21 EDT 1994
- 14.00000   4.00000    940714                znucl, zion, pspdat
    1    1    2    2      2001   0.00000      pspcod,pspxc,lmax,lloc,mmax,r2well
    0   5.907  14.692    1   2.0872718        l,e99.0,e99.9,nproj,rcpsp
   0.00000000   0.00000000   0.00000000   0.00000000     rms, ekb1, ekb2, epsatm
    1   2.617   4.181    1   2.0872718        l,e99.0,e99.9,nproj,rcpsp
   0.00000000   0.00000000   0.00000000   0.00000000     rms, ekb1, ekb2, epsatm
    2   0.000   0.000    0   2.0872718        l,e99.0,e99.9,nproj,rcpsp
   0.00000000   0.00000000   0.00000000   0.00000000     rms, ekb1, ekb2, epsatm
    1.80626423934776    0.22824404341771    1.17378968127746   rchrg,fchrg,qchrg
  pspatm : epsatm=    1.43386982
         --- l  ekb(1:nproj) -->
             0    3.287949
             1    1.849886
 pspatm: atomic psp has been read  and splines computed

   2.29419171E+01                                ecore*ucvol(ha*bohr**3)
--------------------------------------------------------------------------------

 ==== K-mesh for the wavefunctions ====
 Number of points in the irreducible wedge :    64
 Reduced coordinates and weights : 

     1)     2.75000000E-02  5.25000000E-02  7.75000000E-02       0.01563
     2)     2.77500000E-01  5.25000000E-02  7.75000000E-02       0.01563
     3)    -4.72500000E-01  5.25000000E-02  7.75000000E-02       0.01563
     4)    -2.22500000E-01  5.25000000E-02  7.75000000E-02       0.01563
     5)     2.75000000E-02  3.02500000E-01  7.75000000E-02       0.01563
     6)     2.77500000E-01  3.02500000E-01  7.75000000E-02       0.01563
     7)    -4.72500000E-01  3.02500000E-01  7.75000000E-02       0.01563
     8)    -2.22500000E-01  3.02500000E-01  7.75000000E-02       0.01563
     9)     2.75000000E-02 -4.47500000E-01  7.75000000E-02       0.01563
    10)     2.77500000E-01 -4.47500000E-01  7.75000000E-02       0.01563
    11)    -4.72500000E-01 -4.47500000E-01  7.75000000E-02       0.01563
    12)    -2.22500000E-01 -4.47500000E-01  7.75000000E-02       0.01563
    13)     2.75000000E-02 -1.97500000E-01  7.75000000E-02       0.01563
    14)     2.77500000E-01 -1.97500000E-01  7.75000000E-02       0.01563
    15)    -4.72500000E-01 -1.97500000E-01  7.75000000E-02       0.01563
    16)    -2.22500000E-01 -1.97500000E-01  7.75000000E-02       0.01563
    17)     2.75000000E-02  5.25000000E-02  3.27500000E-01       0.01563
    18)     2.77500000E-01  5.25000000E-02  3.27500000E-01       0.01563
    19)    -4.72500000E-01  5.25000000E-02  3.27500000E-01       0.01563
    20)    -2.22500000E-01  5.25000000E-02  3.27500000E-01       0.01563
    21)     2.75000000E-02  3.02500000E-01  3.27500000E-01       0.01563
    22)     2.77500000E-01  3.02500000E-01  3.27500000E-01       0.01563
    23)    -4.72500000E-01  3.02500000E-01  3.27500000E-01       0.01563
    24)    -2.22500000E-01  3.02500000E-01  3.27500000E-01       0.01563
    25)     2.75000000E-02 -4.47500000E-01  3.27500000E-01       0.01563
    26)     2.77500000E-01 -4.47500000E-01  3.27500000E-01       0.01563
    27)    -4.72500000E-01 -4.47500000E-01  3.27500000E-01       0.01563
    28)    -2.22500000E-01 -4.47500000E-01  3.27500000E-01       0.01563
    29)     2.75000000E-02 -1.97500000E-01  3.27500000E-01       0.01563
    30)     2.77500000E-01 -1.97500000E-01  3.27500000E-01       0.01563
    31)    -4.72500000E-01 -1.97500000E-01  3.27500000E-01       0.01563
    32)    -2.22500000E-01 -1.97500000E-01  3.27500000E-01       0.01563
    33)     2.75000000E-02  5.25000000E-02 -4.22500000E-01       0.01563
    34)     2.77500000E-01  5.25000000E-02 -4.22500000E-01       0.01563
    35)    -4.72500000E-01  5.25000000E-02 -4.22500000E-01       0.01563
    36)    -2.22500000E-01  5.25000000E-02 -4.22500000E-01       0.01563
    37)     2.75000000E-02  3.02500000E-01 -4.22500000E-01       0.01563
    38)     2.77500000E-01  3.02500000E-01 -4.22500000E-01       0.01563
    39)    -4.72500000E-01  3.02500000E-01 -4.22500000E-01       0.01563
    40)    -2.22500000E-01  3.02500000E-01 -4.22500000E-01       0.01563
    41)     2.75000000E-02 -4.47500000E-01 -4.22500000E-01       0.01563
    42)     2.77500000E-01 -4.47500000E-01 -4.22500000E-01       0.01563
    43)    -4.72500000E-01 -4.47500000E-01 -4.22500000E-01       0.01563
    44)    -2.22500000E-01 -4.47500000E-01 -4.22500000E-01       0.01563
    45)     2.75000000E-02 -1.97500000E-01 -4.22500000E-01       0.01563
    46)     2.77500000E-01 -1.97500000E-01 -4.22500000E-01       0.01563
    47)    -4.72500000E-01 -1.97500000E-01 -4.22500000E-01       0.01563
    48)    -2.22500000E-01 -1.97500000E-01 -4.22500000E-01       0.01563
    49)     2.75000000E-02  5.25000000E-02 -1.72500000E-01       0.01563
    50)     2.77500000E-01  5.25000000E-02 -1.72500000E-01       0.01563
    51)    -4.72500000E-01  5.25000000E-02 -1.72500000E-01       0.01563
    52)    -2.22500000E-01  5.25000000E-02 -1.72500000E-01       0.01563
    53)     2.75000000E-02  3.02500000E-01 -1.72500000E-01       0.01563
    54)     2.77500000E-01  3.02500000E-01 -1.72500000E-01       0.01563
    55)    -4.72500000E-01  3.02500000E-01 -1.72500000E-01       0.01563
    56)    -2.22500000E-01  3.02500000E-01 -1.72500000E-01       0.01563
    57)     2.75000000E-02 -4.47500000E-01 -1.72500000E-01       0.01563
    58)     2.77500000E-01 -4.47500000E-01 -1.72500000E-01       0.01563
    59)    -4.72500000E-01 -4.47500000E-01 -1.72500000E-01       0.01563
    60)    -2.22500000E-01 -4.47500000E-01 -1.72500000E-01       0.01563
    61)     2.75000000E-02 -1.97500000E-01 -1.72500000E-01       0.01563
    62)     2.77500000E-01 -1.97500000E-01 -1.72500000E-01       0.01563
    63)    -4.72500000E-01 -1.97500000E-01 -1.72500000E-01       0.01563
    64)    -2.22500000E-01 -1.97500000E-01 -1.72500000E-01       0.01563

 Together with 48 symmetry operations and time-reversal symmetry 
 yields    64 points in the full Brillouin Zone.


 ==== Q-mesh for the screening function ====
 Number of points in the irreducible wedge :     8
 Reduced coordinates and weights : 

     1)     0.00000000E+00  0.00000000E+00  0.00000000E+00       0.01563
     2)     2.50000000E-01  0.00000000E+00  0.00000000E+00       0.12500
     3)     5.00000000E-01  0.00000000E+00  0.00000000E+00       0.06250
     4)     2.50000000E-01  2.50000000E-01  0.00000000E+00       0.09375
     5)     5.00000000E-01  2.50000000E-01  0.00000000E+00       0.37500
     6)    -2.50000000E-01  2.50000000E-01  0.00000000E+00       0.18750
     7)     5.00000000E-01  5.00000000E-01  0.00000000E+00       0.04688
     8)    -2.50000000E-01  5.00000000E-01  2.50000000E-01       0.09375

 Together with 48 symmetry operations and time-reversal symmetry 
 yields    64 points in the full Brillouin Zone.


 setmesh: FFT mesh size selected  =  20x 20x 20
          total number of points  =     8000

 ==== Fundamental parameters for the solution of the Bethe-Salpeter equation: ====
 Algorithm: Haydock technique.
 Dimension of the v, W matrices,  npweps  = 27
 Cutoff for the wavefunctions,    npwwfn  = 283
 Number of k-points in the IBZ,   nkibz   = 64
 Highest empty band included,     nband   = 6
 === Spin UP ===
 Number of resonant transitions          256
 Lowest occupied state                   3
 Highest occupied state                  4
 Lowest unoccupied state                 5
 Highest unoccupied state                6
 Minimum frequency [eV]           Emin    =   0.00
 Maximum frequency [eV]           Emax    =   6.00
 Frequency step [eV]              dE      =   0.02
 Lorentzian broadening [eV]       eta     =   0.15
 RPA L0 with KS energies and KS wavefunctions
 Scissors operator energy [eV] =          0.80
 Local fields effects (v term) included
 Excitonic effects (W term) included
 Only diagonal term W_GG included
 W is read from an external SCR file
 Resonant-only calculation (Hermitian case)


 Calculating epsilon_Macro(q-->0,w), along the following directions:
 q = (  0.938821  0.000000  0.000000) [r.l.u.]
 q = (  0.000000  0.938821  0.000000) [r.l.u.]
 q = (  0.000000  0.000000  0.938821) [r.l.u.]
 q = (  0.000000  0.813043  0.813043) [r.l.u.]
 q = (  0.813043  0.000000  0.813043) [r.l.u.]
 q = (  0.813043  0.813043  0.000000) [r.l.u.]
 Number of electrons calculated from density =    8.0000; Expected =    8.0000
 average of density, n =  0.030004
 r_s =    1.9964
 omega_plasma =   16.7088 [eV]

. Writing resonant excitonic Hamiltonian on file tbs_3o_DS1_BSR; file size=   0.00 [Gb].
 Writing KS-RPA macroscopic dielectric function without local fields to file: tbs_3o_DS1_RPA_NLF_MDF
 Writing GW-RPA macroscopic dielectric function without local fields to file: tbs_3o_DS1_GW_NLF_MDF
 >>> Haydock algorithm converged twice within haydock_tol=   5.00E-02 after 31 iterations.
 >>> Haydock algorithm converged twice within haydock_tol=   5.00E-02 after 36 iterations.
 >>> Haydock algorithm converged twice within haydock_tol=   5.00E-02 after 30 iterations.
 >>> Haydock algorithm converged twice within haydock_tol=   5.00E-02 after 35 iterations.
 >>> Haydock algorithm converged twice within haydock_tol=   5.00E-02 after 24 iterations.
 >>> Haydock algorithm converged twice within haydock_tol=   5.00E-02 after 30 iterations.
 Writing EXC Macroscopic dielectric function to file: tbs_3o_DS1_EXC_MDF
  
 Macroscopic dielectric function:
 omega [eV] <KS_RPA_nlf>  <GW_RPA_nlf>  <BSE> 
   0.0000  15.8337   0.0000  13.0939   0.0000  14.5149   0.0000
   0.0200  15.8342   0.0075  13.0941   0.0039  14.5153   0.0055
   0.0400  15.8357   0.0149  13.0949   0.0079  14.5164   0.0110
   0.0600  15.8381   0.0224  13.0962   0.0118  14.5182   0.0166
   0.0800  15.8416   0.0299  13.0981   0.0157  14.5208   0.0221
   0.1000  15.8460   0.0374  13.1004   0.0197  14.5241   0.0276
   0.1200  15.8515   0.0449  13.1033   0.0236  14.5281   0.0332
   0.1400  15.8579   0.0524  13.1067   0.0276  14.5328   0.0387
   0.1600  15.8653   0.0600  13.1106   0.0315  14.5383   0.0443
   0.1800  15.8738   0.0675  13.1150   0.0355  14.5446   0.0499
  

================================================================================
== DATASET  2 ==================================================================
-   mpi_nproc: 1, omp_nthreads: -1 (-1 if OMP is not activated)


--- !DatasetInfo
iteration_state: {dtset: 2, }
dimensions: {natom: 2, nkpt: 64, mband: 7, nsppol: 1, nspinor: 1, nspden: 1, mpw: 298, }
cutoff_energies: {ecut:   8.0, pawecutdg:  -1.0, }
electrons: {nelect:   8.00000000E+00, charge:   0.00000000E+00, occopt:   1.00000000E+00, tsmear:   1.00000000E-02, }
meta: {optdriver: 99, bs_calctype: 1, bs_algorithm: 2, }
...

 Exchange-correlation functional for the present dataset will be:
  LDA: new Teter (4/93) with spin-polarized option - ixc=1
 Citation for XC functional:
  S. Goedecker, M. Teter, J. Huetter, PRB 54, 1703 (1996)

 Exciton: Calculation of dielectric properties by solving the Bethe-Salpeter equation 
 in frequency domain and reciprocal space on a transitions basis set. 
 Based on a program developed by L. Reining, V. Olevano, F. Sottile, 
 S. Albrecht, and G. Onida. Incorporated in ABINIT by M. Giantomassi. 

.Using double precision arithmetic ; gwpc =  8

 Real(R)+Recip(G) space primitive vectors, cartesian coordinates (Bohr,Bohr^-1):
 R(1)=  0.0000000  5.1085000  5.1085000  G(1)= -0.0978761  0.0978761  0.0978761
 R(2)=  5.1085000  0.0000000  5.1085000  G(2)=  0.0978761 -0.0978761  0.0978761
 R(3)=  5.1085000  5.1085000  0.0000000  G(3)=  0.0978761  0.0978761 -0.0978761
 Unit cell volume ucvol=  2.6663072E+02 bohr^3
 Angles (23,13,12)=  6.00000000E+01  6.00000000E+01  6.00000000E+01 degrees
--------------------------------------------------------------------------------

 ==== K-mesh for the wavefunctions ====
 Number of points in the irreducible wedge :    64
 Reduced coordinates and weights : 

     1)     2.75000000E-02  5.25000000E-02  7.75000000E-02       0.01563
     2)     2.77500000E-01  5.25000000E-02  7.75000000E-02       0.01563
     3)    -4.72500000E-01  5.25000000E-02  7.75000000E-02       0.01563
     4)    -2.22500000E-01  5.25000000E-02  7.75000000E-02       0.01563
     5)     2.75000000E-02  3.02500000E-01  7.75000000E-02       0.01563
     6)     2.77500000E-01  3.02500000E-01  7.75000000E-02       0.01563
     7)    -4.72500000E-01  3.02500000E-01  7.75000000E-02       0.01563
     8)    -2.22500000E-01  3.02500000E-01  7.75000000E-02       0.01563
     9)     2.75000000E-02 -4.47500000E-01  7.75000000E-02       0.01563
    10)     2.77500000E-01 -4.47500000E-01  7.75000000E-02       0.01563
    11)    -4.72500000E-01 -4.47500000E-01  7.75000000E-02       0.01563
    12)    -2.22500000E-01 -4.47500000E-01  7.75000000E-02       0.01563
    13)     2.75000000E-02 -1.97500000E-01  7.75000000E-02       0.01563
    14)     2.77500000E-01 -1.97500000E-01  7.75000000E-02       0.01563
    15)    -4.72500000E-01 -1.97500000E-01  7.75000000E-02       0.01563
    16)    -2.22500000E-01 -1.97500000E-01  7.75000000E-02       0.01563
    17)     2.75000000E-02  5.25000000E-02  3.27500000E-01       0.01563
    18)     2.77500000E-01  5.25000000E-02  3.27500000E-01       0.01563
    19)    -4.72500000E-01  5.25000000E-02  3.27500000E-01       0.01563
    20)    -2.22500000E-01  5.25000000E-02  3.27500000E-01       0.01563
    21)     2.75000000E-02  3.02500000E-01  3.27500000E-01       0.01563
    22)     2.77500000E-01  3.02500000E-01  3.27500000E-01       0.01563
    23)    -4.72500000E-01  3.02500000E-01  3.27500000E-01       0.01563
    24)    -2.22500000E-01  3.02500000E-01  3.27500000E-01       0.01563
    25)     2.75000000E-02 -4.47500000E-01  3.27500000E-01       0.01563
    26)     2.77500000E-01 -4.47500000E-01  3.27500000E-01       0.01563
    27)    -4.72500000E-01 -4.47500000E-01  3.27500000E-01       0.01563
    28)    -2.22500000E-01 -4.47500000E-01  3.27500000E-01       0.01563
    29)     2.75000000E-02 -1.97500000E-01  3.27500000E-01       0.01563
    30)     2.77500000E-01 -1.97500000E-01  3.27500000E-01       0.01563
    31)    -4.72500000E-01 -1.97500000E-01  3.27500000E-01       0.01563
    32)    -2.22500000E-01 -1.97500000E-01  3.27500000E-01       0.01563
    33)     2.75000000E-02  5.25000000E-02 -4.22500000E-01       0.01563
    34)     2.77500000E-01  5.25000000E-02 -4.22500000E-01       0.01563
    35)    -4.72500000E-01  5.25000000E-02 -4.22500000E-01       0.01563
    36)    -2.22500000E-01  5.25000000E-02 -4.22500000E-01       0.01563
    37)     2.75000000E-02  3.02500000E-01 -4.22500000E-01       0.01563
    38)     2.77500000E-01  3.02500000E-01 -4.22500000E-01       0.01563
    39)    -4.72500000E-01  3.02500000E-01 -4.22500000E-01       0.01563
    40)    -2.22500000E-01  3.02500000E-01 -4.22500000E-01       0.01563
    41)     2.75000000E-02 -4.47500000E-01 -4.22500000E-01       0.01563
    42)     2.77500000E-01 -4.47500000E-01 -4.22500000E-01       0.01563
    43)    -4.72500000E-01 -4.47500000E-01 -4.22500000E-01       0.01563
    44)    -2.22500000E-01 -4.47500000E-01 -4.22500000E-01       0.01563
    45)     2.75000000E-02 -1.97500000E-01 -4.22500000E-01       0.01563
    46)     2.77500000E-01 -1.97500000E-01 -4.22500000E-01       0.01563
    47)    -4.72500000E-01 -1.97500000E-01 -4.22500000E-01       0.01563
    48)    -2.22500000E-01 -1.97500000E-01 -4.22500000E-01       0.01563
    49)     2.75000000E-02  5.25000000E-02 -1.72500000E-01       0.01563
    50)     2.77500000E-01  5.25000000E-02 -1.72500000E-01       0.01563
    51)    -4.72500000E-01  5.25000000E-02 -1.72500000E-01       0.01563
    52)    -2.22500000E-01  5.25000000E-02 -1.72500000E-01       0.01563
    53)     2.75000000E-02  3.02500000E-01 -1.72500000E-01       0.01563
    54)     2.77500000E-01  3.02500000E-01 -1.72500000E-01       0.01563
    55)    -4.72500000E-01  3.02500000E-01 -1.72500000E-01       0.01563
    56)    -2.22500000E-01  3.02500000E-01 -1.72500000E-01       0.01563
    57)     2.75000000E-02 -4.47500000E-01 -1.72500000E-01       0.01563
    58)     2.77500000E-01 -4.47500000E-01 -1.72500000E-01       0.01563
    59)    -4.72500000E-01 -4.47500000E-01 -1.72500000E-01       0.01563
    60)    -2.22500000E-01 -4.47500000E-01 -1.72500000E-01       0.01563
    61)     2.75000000E-02 -1.97500000E-01 -1.72500000E-01       0.01563
    62)     2.77500000E-01 -1.97500000E-01 -1.72500000E-01       0.01563
    63)    -4.72500000E-01 -1.97500000E-01 -1.72500000E-01       0.01563
    64)    -2.22500000E-01 -1.97500000E-01 -1.72500000E-01       0.01563

 Together with 48 symmetry operations and time-reversal symmetry 
 yields    64 points in the full Brillouin Zone.


 ==== Q-mesh for the screening function ====
 Number of points in the irreducible wedge :     8
 Reduced coordinates and weights : 

     1)     0.00000000E+00  0.00000000E+00  0.00000000E+00       0.01563
     2)     2.50000000E-01  0.00000000E+00  0.00000000E+00       0.12500
     3)     5.00000000E-01  0.00000000E+00  0.00000000E+00       0.06250
     4)     2.50000000E-01  2.50000000E-01  0.00000000E+00       0.09375
     5)     5.00000000E-01  2.50000000E-01  0.00000000E+00       0.37500
     6)    -2.50000000E-01  2.50000000E-01  0.00000000E+00       0.18750
     7)     5.00000000E-01  5.00000000E-01  0.00000000E+00       0.04688
     8)    -2.50000000E-01  5.00000000E-01  2.50000000E-01       0.09375

 Together with 48 symmetry operations and time-reversal symmetry 
 yields    64 points in the full Brillouin Zone.


 setmesh: FFT mesh size selected  =  20x 20x 20
          total number of points  =     8000

 ==== Fundamental parameters for the solution of the Bethe-Salpeter equation: ====
 Algorithm: Haydock technique.
 Dimension of the v, W matrices,  npweps  = 27
 Cutoff for the wavefunctions,    npwwfn  = 283
 Number of k-points in the IBZ,   nkibz   = 64
 Highest empty band included,     nband   = 7
 === Spin UP ===
 Number of resonant transitions          576
 Lowest occupied state                   2
 Highest occupied state                  4
 Lowest unoccupied state                 5
 Highest unoccupied state                7
 Minimum frequency [eV]           Emin    =   0.00
 Maximum frequency [eV]           Emax    =   6.00
 Frequency step [eV]              dE      =   0.02
 Lorentzian broadening [eV]       eta     =   0.15
 RPA L0 with KS energies and KS wavefunctions
 Scissors operator energy [eV] =          0.80
 Local fields effects (v term) included
 Excitonic effects (W term) included
 Only diagonal term W_GG included
 W is read from an external SCR file
 Resonant-only calculation (Hermitian case)


 Calculating epsilon_Macro(q-->0,w), along the following directions:
 q = (  0.938821  0.000000  0.000000) [r.l.u.]
 q = (  0.000000  0.938821  0.000000) [r.l.u.]
 q = (  0.000000  0.000000  0.938821) [r.l.u.]
 q = (  0.000000  0.813043  0.813043) [r.l.u.]
 q = (  0.813043  0.000000  0.813043) [r.l.u.]
 q = (  0.813043  0.813043  0.000000) [r.l.u.]
 Number of electrons calculated from density =    8.0000; Expected =    8.0000
 average of density, n =  0.030004
 r_s =    1.9964
 omega_plasma =   16.7088 [eV]

. Writing resonant excitonic Hamiltonian on file tbs_3o_DS2_BSR; file size=   0.00 [Gb].
 Writing KS-RPA macroscopic dielectric function without local fields to file: tbs_3o_DS2_RPA_NLF_MDF
 Writing GW-RPA macroscopic dielectric function without local fields to file: tbs_3o_DS2_GW_NLF_MDF
 >>> Haydock algorithm converged twice within haydock_tol=   5.00E-02 after 49 iterations.
 >>> Haydock algorithm converged twice within haydock_tol=   5.00E-02 after 49 iterations.
 >>> Haydock algorithm converged twice within haydock_tol=   5.00E-02 after 40 iterations.
 >>> Haydock algorithm converged twice within haydock_tol=   5.00E-02 after 44 iterations.
 >>> Haydock algorithm converged twice within haydock_tol=   5.00E-02 after 31 iterations.
 >>> Haydock algorithm converged twice within haydock_tol=   5.00E-02 after 49 iterations.
 Writing EXC Macroscopic dielectric function to file: tbs_3o_DS2_EXC_MDF
  
 Macroscopic dielectric function:
 omega [eV] <KS_RPA_nlf>  <GW_RPA_nlf>  <BSE> 
   0.0000  17.2075   0.0000  14.2464   0.0000  15.9463   0.0000
   0.0200  17.2080   0.0080  14.2466   0.0042  15.9467   0.0061
   0.0400  17.2096   0.0160  14.2475   0.0084  15.9479   0.0122
   0.0600  17.2123   0.0240  14.2489   0.0127  15.9500   0.0184
   0.0800  17.2160   0.0321  14.2508   0.0169  15.9528   0.0245
   0.1000  17.2208   0.0401  14.2534   0.0211  15.9565   0.0306
   0.1200  17.2266   0.0482  14.2564   0.0254  15.9609   0.0368
   0.1400  17.2335   0.0562  14.2601   0.0296  15.9662   0.0430
   0.1600  17.2415   0.0643  14.2643   0.0339  15.9723   0.0491
   0.1800  17.2505   0.0725  14.2691   0.0382  15.9792   0.0553
  

== END DATASET(S) ==============================================================
================================================================================
  
 -outvars: echo values of variables after computation  --------
            acell      1.0217000000E+01  1.0217000000E+01  1.0217000000E+01 Bohr
              amu      2.80855000E+01
  bs_coulomb_term          10
     bs_freq_mesh      0.00000000E+00  2.20495952E-01  7.34986508E-04 Hartree
   bs_haydock_tol      5.00000000E-02  0.00000000E+00
        bs_loband1          3
        bs_loband2          2
      chksymbreak           0
           diemac      1.20000000E+01
             ecut      8.00000000E+00 Hartree
          ecuteps      2.00000000E+00 Hartree
          ecutwfn      8.00000000E+00 Hartree
           etotal1     0.0000000000E+00
           etotal2     0.0000000000E+00
            fcart1     0.0000000000E+00  0.0000000000E+00  0.0000000000E+00
                       0.0000000000E+00  0.0000000000E+00  0.0000000000E+00
            fcart2     0.0000000000E+00  0.0000000000E+00  0.0000000000E+00
                       0.0000000000E+00  0.0000000000E+00  0.0000000000E+00
-          fftalg         312
      gw_icutcoul           3
           irdscr           1
           irdwfk           1
           jdtset        1    2
              kpt      2.75000000E-02  5.25000000E-02  7.75000000E-02
                       2.77500000E-01  5.25000000E-02  7.75000000E-02
                      -4.72500000E-01  5.25000000E-02  7.75000000E-02
                      -2.22500000E-01  5.25000000E-02  7.75000000E-02
                       2.75000000E-02  3.02500000E-01  7.75000000E-02
                       2.77500000E-01  3.02500000E-01  7.75000000E-02
                      -4.72500000E-01  3.02500000E-01  7.75000000E-02
                      -2.22500000E-01  3.02500000E-01  7.75000000E-02
                       2.75000000E-02 -4.47500000E-01  7.75000000E-02
                       2.77500000E-01 -4.47500000E-01  7.75000000E-02
                      -4.72500000E-01 -4.47500000E-01  7.75000000E-02
                      -2.22500000E-01 -4.47500000E-01  7.75000000E-02
                       2.75000000E-02 -1.97500000E-01  7.75000000E-02
                       2.77500000E-01 -1.97500000E-01  7.75000000E-02
                      -4.72500000E-01 -1.97500000E-01  7.75000000E-02
                      -2.22500000E-01 -1.97500000E-01  7.75000000E-02
                       2.75000000E-02  5.25000000E-02  3.27500000E-01
                       2.77500000E-01  5.25000000E-02  3.27500000E-01
                      -4.72500000E-01  5.25000000E-02  3.27500000E-01
                      -2.22500000E-01  5.25000000E-02  3.27500000E-01
                       2.75000000E-02  3.02500000E-01  3.27500000E-01
                       2.77500000E-01  3.02500000E-01  3.27500000E-01
                      -4.72500000E-01  3.02500000E-01  3.27500000E-01
                      -2.22500000E-01  3.02500000E-01  3.27500000E-01
                       2.75000000E-02 -4.47500000E-01  3.27500000E-01
                       2.77500000E-01 -4.47500000E-01  3.27500000E-01
                      -4.72500000E-01 -4.47500000E-01  3.27500000E-01
                      -2.22500000E-01 -4.47500000E-01  3.27500000E-01
                       2.75000000E-02 -1.97500000E-01  3.27500000E-01
                       2.77500000E-01 -1.97500000E-01  3.27500000E-01
                      -4.72500000E-01 -1.97500000E-01  3.27500000E-01
                      -2.22500000E-01 -1.97500000E-01  3.27500000E-01
                       2.75000000E-02  5.25000000E-02 -4.22500000E-01
                       2.77500000E-01  5.25000000E-02 -4.22500000E-01
                      -4.72500000E-01  5.25000000E-02 -4.22500000E-01
                      -2.22500000E-01  5.25000000E-02 -4.22500000E-01
                       2.75000000E-02  3.02500000E-01 -4.22500000E-01
                       2.77500000E-01  3.02500000E-01 -4.22500000E-01
                      -4.72500000E-01  3.02500000E-01 -4.22500000E-01
                      -2.22500000E-01  3.02500000E-01 -4.22500000E-01
                       2.75000000E-02 -4.47500000E-01 -4.22500000E-01
                       2.77500000E-01 -4.47500000E-01 -4.22500000E-01
                      -4.72500000E-01 -4.47500000E-01 -4.22500000E-01
                      -2.22500000E-01 -4.47500000E-01 -4.22500000E-01
                       2.75000000E-02 -1.97500000E-01 -4.22500000E-01
                       2.77500000E-01 -1.97500000E-01 -4.22500000E-01
                      -4.72500000E-01 -1.97500000E-01 -4.22500000E-01
                      -2.22500000E-01 -1.97500000E-01 -4.22500000E-01
                       2.75000000E-02  5.25000000E-02 -1.72500000E-01
                       2.77500000E-01  5.25000000E-02 -1.72500000E-01
                       outvar_i_n : Printing only first  50 k-points.
         kptrlatt        4    0    0      0    4    0      0    0    4
          kptrlen      2.88980399E+01
       mbpt_sciss      2.93994603E-02 Hartree
P           mkmem          64
            natom           2
            nband1          6
            nband2          7
           ndtset           2
            ngfft          20      20      20
             nkpt          64
           npweps          27
           npwwfn         283
            nstep          50
             nsym          48
           ntypat           1
              occ1     2.000000  2.000000  2.000000  2.000000  0.000000  0.000000
              occ2     2.000000  2.000000  2.000000  2.000000  0.000000  0.000000
                       0.000000
        optdriver          99
            rprim      0.0000000000E+00  5.0000000000E-01  5.0000000000E-01
                       5.0000000000E-01  0.0000000000E+00  5.0000000000E-01
                       5.0000000000E-01  5.0000000000E-01  0.0000000000E+00
           shiftk      1.10000000E-01  2.10000000E-01  3.10000000E-01
          spgroup         227
           strten1     0.0000000000E+00  0.0000000000E+00  0.0000000000E+00
                       0.0000000000E+00  0.0000000000E+00  0.0000000000E+00
           strten2     0.0000000000E+00  0.0000000000E+00  0.0000000000E+00
                       0.0000000000E+00  0.0000000000E+00  0.0000000000E+00
           symrel      1  0  0   0  1  0   0  0  1      -1  0  0   0 -1  0   0  0 -1
                       0 -1  1   0 -1  0   1 -1  0       0  1 -1   0  1  0  -1  1  0
                      -1  0  0  -1  0  1  -1  1  0       1  0  0   1  0 -1   1 -1  0
                       0  1 -1   1  0 -1   0  0 -1       0 -1  1  -1  0  1   0  0  1
                      -1  0  0  -1  1  0  -1  0  1       1  0  0   1 -1  0   1  0 -1
                       0 -1  1   1 -1  0   0 -1  0       0  1 -1  -1  1  0   0  1  0
                       1  0  0   0  0  1   0  1  0      -1  0  0   0  0 -1   0 -1  0
                       0  1 -1   0  0 -1   1  0 -1       0 -1  1   0  0  1  -1  0  1
                      -1  0  1  -1  1  0  -1  0  0       1  0 -1   1 -1  0   1  0  0
                       0 -1  0   1 -1  0   0 -1  1       0  1  0  -1  1  0   0  1 -1
                       1  0 -1   0  0 -1   0  1 -1      -1  0  1   0  0  1   0 -1  1
                       0  1  0   0  0  1   1  0  0       0 -1  0   0  0 -1  -1  0  0
                       1  0 -1   0  1 -1   0  0 -1      -1  0  1   0 -1  1   0  0  1
                       0 -1  0   0 -1  1   1 -1  0       0  1  0   0  1 -1  -1  1  0
                      -1  0  1  -1  0  0  -1  1  0       1  0 -1   1  0  0   1 -1  0
                       0  1  0   1  0  0   0  0  1       0 -1  0  -1  0  0   0  0 -1
                       0  0 -1   0  1 -1   1  0 -1       0  0  1   0 -1  1  -1  0  1
                       1 -1  0   0 -1  1   0 -1  0      -1  1  0   0  1 -1   0  1  0
                       0  0  1   1  0  0   0  1  0       0  0 -1  -1  0  0   0 -1  0
                      -1  1  0  -1  0  0  -1  0  1       1 -1  0   1  0  0   1  0 -1
                       0  0  1   0  1  0   1  0  0       0  0 -1   0 -1  0  -1  0  0
                       1 -1  0   0 -1  0   0 -1  1      -1  1  0   0  1  0   0  1 -1
                       0  0 -1   1  0 -1   0  1 -1       0  0  1  -1  0  1   0 -1  1
                      -1  1  0  -1  0  1  -1  0  0       1 -1  0   1  0 -1   1  0  0
            tnons      0.0000000  0.0000000  0.0000000     0.2500000  0.2500000  0.2500000
                       0.0000000  0.0000000  0.0000000     0.2500000  0.2500000  0.2500000
                       0.0000000  0.0000000  0.0000000     0.2500000  0.2500000  0.2500000
                       0.0000000  0.0000000  0.0000000     0.2500000  0.2500000  0.2500000
                       0.0000000  0.0000000  0.0000000     0.2500000  0.2500000  0.2500000
                       0.0000000  0.0000000  0.0000000     0.2500000  0.2500000  0.2500000
                       0.0000000  0.0000000  0.0000000     0.2500000  0.2500000  0.2500000
                       0.0000000  0.0000000  0.0000000     0.2500000  0.2500000  0.2500000
                       0.0000000  0.0000000  0.0000000     0.2500000  0.2500000  0.2500000
                       0.0000000  0.0000000  0.0000000     0.2500000  0.2500000  0.2500000
                       0.0000000  0.0000000  0.0000000     0.2500000  0.2500000  0.2500000
                       0.0000000  0.0000000  0.0000000     0.2500000  0.2500000  0.2500000
                       0.0000000  0.0000000  0.0000000     0.2500000  0.2500000  0.2500000
                       0.0000000  0.0000000  0.0000000     0.2500000  0.2500000  0.2500000
                       0.0000000  0.0000000  0.0000000     0.2500000  0.2500000  0.2500000
                       0.0000000  0.0000000  0.0000000     0.2500000  0.2500000  0.2500000
                       0.0000000  0.0000000  0.0000000     0.2500000  0.2500000  0.2500000
                       0.0000000  0.0000000  0.0000000     0.2500000  0.2500000  0.2500000
                       0.0000000  0.0000000  0.0000000     0.2500000  0.2500000  0.2500000
                       0.0000000  0.0000000  0.0000000     0.2500000  0.2500000  0.2500000
                       0.0000000  0.0000000  0.0000000     0.2500000  0.2500000  0.2500000
                       0.0000000  0.0000000  0.0000000     0.2500000  0.2500000  0.2500000
                       0.0000000  0.0000000  0.0000000     0.2500000  0.2500000  0.2500000
                       0.0000000  0.0000000  0.0000000     0.2500000  0.2500000  0.2500000
            typat      1  1
              wtk        0.01563    0.01563    0.01563    0.01563    0.01563    0.01563
                         0.01563    0.01563    0.01563    0.01563    0.01563    0.01563
                         0.01563    0.01563    0.01563    0.01563    0.01563    0.01563
                         0.01563    0.01563    0.01563    0.01563    0.01563    0.01563
                         0.01563    0.01563    0.01563    0.01563    0.01563    0.01563
                         0.01563    0.01563    0.01563    0.01563    0.01563    0.01563
                         0.01563    0.01563    0.01563    0.01563    0.01563    0.01563
                         0.01563    0.01563    0.01563    0.01563    0.01563    0.01563
                         0.01563    0.01563
                       outvars : Printing only first  50 k-points.
           xangst      0.0000000000E+00  0.0000000000E+00  0.0000000000E+00
                       1.3516508850E+00  1.3516508850E+00  1.3516508850E+00
            xcart      0.0000000000E+00  0.0000000000E+00  0.0000000000E+00
                       2.5542500000E+00  2.5542500000E+00  2.5542500000E+00
             xred      0.0000000000E+00  0.0000000000E+00  0.0000000000E+00
                       2.5000000000E-01  2.5000000000E-01  2.5000000000E-01
             zcut      5.51239881E-03 Hartree
            znucl       14.00000

================================================================================

- Total cpu        time (s,m,h):         26.2        0.44      0.007
- Total wall clock time (s,m,h):         30.8        0.51      0.009
-
- For major independent code sections, cpu and wall times (sec),
-  as well as % of the time and number of calls for node 0-
-<BEGIN_TIMER mpi_nprocs = 1, omp_nthreads = 1, mpi_rank = 0>
- cpu_time =           26.2, wall_time =           30.8
-
- routine                        cpu     %       wall     %      number of calls  Gflops    Speedup Efficacity
-                                                                  (-1=no count)
- bse(mkexcham)                 22.193  84.8     23.264  75.6              2      -1.00        0.95       0.95
- bse(mkexceps)                  2.050   7.8      3.269  10.6              2      -1.00        0.63       0.63
- bse(exc_haydock_driver)        2.047   7.8      3.265  10.6              2      -1.00        0.63       0.63
- bse(Init1)                     1.056   4.0      1.061   3.4              2      -1.00        1.00       1.00
- pspini                         0.415   1.6      0.416   1.4              2      -1.00        1.00       1.00
- bse(mkrho)                     0.273   1.0      0.275   0.9              2      -1.00        0.99       0.99
- ewald                          0.168   0.6      0.168   0.5              2      -1.00        1.00       1.00
- others (120)                   0.351   1.3      0.359   1.2             -1      -1.00        0.98       0.98
-<END_TIMER>
-
- subtotal                      28.553 109.0     32.077 104.3                                  0.89       0.89

- For major independent code sections, cpu and wall times (sec),
- as well as % of the total time and number of calls 

-<BEGIN_TIMER mpi_nprocs = 1, omp_nthreads = 1, mpi_rank = world>
- cpu_time =          26.2, wall_time =          30.8
-
- routine                         cpu     %       wall     %      number of calls Gflops    Speedup Efficacity
-                                                                  (-1=no count)
- bse(mkexcham)                 22.193  84.8     23.264  75.6              2      -1.00        0.95       0.95
- bse(mkexceps)                  2.050   7.8      3.269  10.6              2      -1.00        0.63       0.63
- bse(exc_haydock_driver)        2.047   7.8      3.265  10.6              2      -1.00        0.63       0.63
- bse(Init1)                     1.056   4.0      1.061   3.4              2      -1.00        1.00       1.00
- pspini                         0.415   1.6      0.416   1.4              2      -1.00        1.00       1.00
- bse(mkrho)                     0.273   1.0      0.275   0.9              2      -1.00        0.99       0.99
- ewald                          0.168   0.6      0.168   0.5              2      -1.00        1.00       1.00
- others (120)                   0.351   1.3      0.359   1.2             -1      -1.00        0.98       0.98
-<END_TIMER>

- subtotal                      28.553 109.0     32.077 104.3                                  0.89       0.89

================================================================================

 Suggested references for the acknowledgment of ABINIT usage.

 The users of ABINIT have little formal obligations with respect to the ABINIT group
 (those specified in the GNU General Public License, http://www.gnu.org/copyleft/gpl.txt).
 However, it is common practice in the scientific literature,
 to acknowledge the efforts of people that have made the research possible.
 In this spirit, please find below suggested citations of work written by ABINIT developers,
 corresponding to implementations inside of ABINIT that you have used in the present run.
 Note also that it will be of great value to readers of publications presenting these results,
 to read papers enabling them to understand the theoretical formalism and details
 of the ABINIT implementation.
 For information on why they are suggested, see also https://docs.abinit.org/theory/acknowledgments.
-
- [1] The Abinit project: Impact, environment and recent developments.
- Computer Phys. Comm. 248, 107042 (2020).
- X.Gonze, B. Amadon, G. Antonius, F.Arnardi, L.Baguet, J.-M.Beuken,
- J.Bieder, F.Bottin, J.Bouchet, E.Bousquet, N.Brouwer, F.Bruneval,
- G.Brunin, T.Cavignac, J.-B. Charraud, Wei Chen, M.Cote, S.Cottenier,
- J.Denier, G.Geneste, Ph.Ghosez, M.Giantomassi, Y.Gillet, O.Gingras,
- D.R.Hamann, G.Hautier, Xu He, N.Helbig, N.Holzwarth, Y.Jia, F.Jollet,
- W.Lafargue-Dit-Hauret, K.Lejaeghere, M.A.L.Marques, A.Martin, C.Martins,
- H.P.C. Miranda, F.Naccarato, K. Persson, G.Petretto, V.Planes, Y.Pouillon,
- S.Prokhorenko, F.Ricci, G.-M.Rignanese, A.H.Romero, M.M.Schmitt, M.Torrent,
- M.J.van Setten, B.Van Troeye, M.J.Verstraete, G.Zerah and J.W.Zwanzig
- Comment: the fifth generic paper describing the ABINIT project.
- Note that a version of this paper, that is not formatted for Computer Phys. Comm. 
- is available at https://www.abinit.org/sites/default/files/ABINIT20.pdf .
- The licence allows the authors to put it on the Web.
- DOI and bibtex: see https://docs.abinit.org/theory/bibliography/#gonze2020
-
- [2] Recent developments in the ABINIT software package.
- Computer Phys. Comm. 205, 106 (2016).
- X.Gonze, F.Jollet, F.Abreu Araujo, D.Adams, B.Amadon, T.Applencourt,
- C.Audouze, J.-M.Beuken, J.Bieder, A.Bokhanchuk, E.Bousquet, F.Bruneval
- D.Caliste, M.Cote, F.Dahm, F.Da Pieve, M.Delaveau, M.Di Gennaro,
- B.Dorado, C.Espejo, G.Geneste, L.Genovese, A.Gerossier, M.Giantomassi,
- Y.Gillet, D.R.Hamann, L.He, G.Jomard, J.Laflamme Janssen, S.Le Roux,
- A.Levitt, A.Lherbier, F.Liu, I.Lukacevic, A.Martin, C.Martins,
- M.J.T.Oliveira, S.Ponce, Y.Pouillon, T.Rangel, G.-M.Rignanese,
- A.H.Romero, B.Rousseau, O.Rubel, A.A.Shukri, M.Stankovski, M.Torrent,
- M.J.Van Setten, B.Van Troeye, M.J.Verstraete, D.Waroquier, J.Wiktor,
- B.Xu, A.Zhou, J.W.Zwanziger.
- Comment: the fourth generic paper describing the ABINIT project.
- Note that a version of this paper, that is not formatted for Computer Phys. Comm. 
- is available at https://www.abinit.org/sites/default/files/ABINIT16.pdf .
- The licence allows the authors to put it on the Web.
- DOI and bibtex: see https://docs.abinit.org/theory/bibliography/#gonze2016
-
- [3] ABINIT: First-principles approach of materials and nanosystem properties.
- Computer Phys. Comm. 180, 2582-2615 (2009).
- X. Gonze, B. Amadon, P.-M. Anglade, J.-M. Beuken, F. Bottin, P. Boulanger, F. Bruneval,
- D. Caliste, R. Caracas, M. Cote, T. Deutsch, L. Genovese, Ph. Ghosez, M. Giantomassi
- S. Goedecker, D.R. Hamann, P. Hermet, F. Jollet, G. Jomard, S. Leroux, M. Mancini, S. Mazevet,
- M.J.T. Oliveira, G. Onida, Y. Pouillon, T. Rangel, G.-M. Rignanese, D. Sangalli, R. Shaltaf,
- M. Torrent, M.J. Verstraete, G. Zerah, J.W. Zwanziger
- Comment: the third generic paper describing the ABINIT project.
- Note that a version of this paper, that is not formatted for Computer Phys. Comm. 
- is available at https://www.abinit.org/sites/default/files/ABINIT_CPC_v10.pdf .
- The licence allows the authors to put it on the Web.
- DOI and bibtex: see https://docs.abinit.org/theory/bibliography/#gonze2009
-
- And optionally:
-
- [4] A brief introduction to the ABINIT software package.
- Z. Kristallogr. 220, 558-562 (2005).
- X. Gonze, G.-M. Rignanese, M. Verstraete, J.-M. Beuken, Y. Pouillon, R. Caracas, F. Jollet,
- M. Torrent, G. Zerah, M. Mikami, Ph. Ghosez, M. Veithen, J.-Y. Raty, V. Olevano, F. Bruneval,
- L. Reining, R. Godby, G. Onida, D.R. Hamann, and D.C. Allan.
- Comment: the second generic paper describing the ABINIT project. Note that this paper
- should be cited especially if you are using the GW part of ABINIT, as several authors
- of this part are not in the list of authors of the first or third paper.
- The .pdf of the latter paper is available at https://www.abinit.org/sites/default/files/zfk_0505-06_558-562.pdf.
- Note that it should not redistributed (Copyright by Oldenburg Wissenschaftverlag,
- the licence allows the authors to put it on the Web).
- DOI and bibtex: see https://docs.abinit.org/theory/bibliography/#gonze2005
-
- Proc.   0 individual time (sec): cpu=         26.2  wall=         30.8

================================================================================

 Calculation completed.
.Delivered  12 WARNINGs and  32 COMMENTs to log file.
+Overall time at end (sec) : cpu=         26.2  wall=         30.8
