
.Version 8.11.12 of ABINIT 
.(MPI version, prepared for a x86_64_linux_gnu9.2 computer) 

.Copyright (C) 1998-2020 ABINIT group . 
 ABINIT comes with ABSOLUTELY NO WARRANTY.
 It is free software, and you are welcome to redistribute it
 under certain conditions (GNU General Public License,
 see ~abinit/COPYING or http://www.gnu.org/copyleft/gpl.txt).

 ABINIT is a project of the Universite Catholique de Louvain,
 Corning Inc. and other collaborators, see ~abinit/doc/developers/contributors.txt .
 Please read https://docs.abinit.org/theory/acknowledgments for suggested
 acknowledgments of the ABINIT effort.
 For more information, see https://www.abinit.org .

.Starting date : Mon 25 Nov 2019.
- ( at 08h22 )
  
- input  file    -> tdftu_2.in
- output file    -> tdftu_2.out
- root for input  files -> tdftu_2i
- root for output files -> tdftu_2o


 Magnetic group, Shubnikov type IV
 Fedorov space group R-3 m (#166)
 Magnetic Bravais lattice hR_I (rhombohedral, centered magnetic, #31)
================================================================================
 Values of the parameters that define the memory need of the present run
     intxc =       0    ionmov =       0      iscf =      17    lmnmax =      18
     lnmax =       6     mgfft =      40  mpssoang =       3    mqgrid =    3001
     natom =       4  nloc_mem =       2    nspden =       2   nspinor =       1
    nsppol =       1      nsym =      24    n1xccc =       1    ntypat =       2
    occopt =       7   xclevel =       1
-    mband =          40        mffmem =           1         mkmem =           3
       mpw =         691          nfft =       16000          nkpt =           3
 PAW method is used; the additional fine FFT grid is defined by:
   mgfftf=        60    nfftf =     54000
================================================================================
P This job should need less than                      25.072 Mbytes of memory.
  Rough estimation (10% accuracy) of disk space for files :
_ WF disk file :      1.267 Mbytes ; DEN or POT disk file :      0.414 Mbytes.
================================================================================

--------------------------------------------------------------------------------
------------- Echo of variables that govern the present computation ------------
--------------------------------------------------------------------------------
-
- outvars: echo of selected default values                                      
-   iomode0 =  0 , fftalg0 =312 , wfoptalg0 = 10
-
- outvars: echo of global parameters not present in the input file              
-  max_nthreads =    0
-
 -outvars: echo values of preprocessed input variables --------
            acell      7.9200000000E+00  7.9200000000E+00  7.9200000000E+00 Bohr
              amu      5.86900000E+01  1.59994000E+01
      chksymbreak           0
             ecut      1.50000000E+01 Hartree
-          fftalg         312
              ixc           7
            jpawu      2.93994603E-02  0.00000000E+00 Hartree
              kpt      2.50000000E-01  2.50000000E-01  2.50000000E-01
                      -2.50000000E-01  2.50000000E-01  2.50000000E-01
                      -2.50000000E-01 -2.50000000E-01  2.50000000E-01
         kptrlatt        2    0    0      0    2    0      0    0    2
          kptrlen      1.12005714E+01
            lpawu           2      -1
P           mkmem           3
            natom           4
            nband          40
            ngfft          20      20      40
          ngfftdg          30      30      60
             nkpt           3
           nspden           2
            nstep          50
             nsym          24
           ntypat           2
              occ      2.000000  2.000000  2.000000  2.000000  2.000000  2.000000
                       2.000000  2.000000  2.000000  2.000000  2.000000  2.000000
                       2.000000  2.000000  2.000000  2.000000  2.000000  2.000000
                       2.000000  2.000000  2.000000  2.000000  2.000000  2.000000
                       0.000000  0.000000  0.000000  0.000000  0.000000  0.000000
                       0.000000  0.000000  0.000000  0.000000  0.000000  0.000000
                       0.000000  0.000000  0.000000  0.000000
                       2.000000  2.000000  2.000000  2.000000  2.000000  2.000000
                       2.000000  2.000000  2.000000  2.000000  2.000000  2.000000
                       2.000000  2.000000  2.000000  2.000000  2.000000  2.000000
                       2.000000  2.000000  2.000000  2.000000  2.000000  2.000000
                       0.000000  0.000000  0.000000  0.000000  0.000000  0.000000
                       0.000000  0.000000  0.000000  0.000000  0.000000  0.000000
                       0.000000  0.000000  0.000000  0.000000
                       2.000000  2.000000  2.000000  2.000000  2.000000  2.000000
                       2.000000  2.000000  2.000000  2.000000  2.000000  2.000000
                       2.000000  2.000000  2.000000  2.000000  2.000000  2.000000
                       2.000000  2.000000  2.000000  2.000000  2.000000  2.000000
                       0.000000  0.000000  0.000000  0.000000  0.000000  0.000000
                       0.000000  0.000000  0.000000  0.000000  0.000000  0.000000
                       0.000000  0.000000  0.000000  0.000000
           occopt           7
        pawecutdg      3.00000000E+01 Hartree
            rprim      0.0000000000E+00  5.0000000000E-01  5.0000000000E-01
                       5.0000000000E-01  0.0000000000E+00  5.0000000000E-01
                       1.0000000000E+00  1.0000000000E+00  0.0000000000E+00
           shiftk      5.00000000E-01  5.00000000E-01  5.00000000E-01
          spgroup         166
           spinat      0.0000000000E+00  0.0000000000E+00  1.0000000000E+00
                       0.0000000000E+00  0.0000000000E+00 -1.0000000000E+00
                       0.0000000000E+00  0.0000000000E+00  0.0000000000E+00
                       0.0000000000E+00  0.0000000000E+00  0.0000000000E+00
           symafm        1   -1    1   -1    1   -1    1   -1    1   -1
                         1   -1    1   -1    1   -1    1   -1    1   -1
                         1   -1    1   -1
           symrel      1  0  0   0  1  0   0  0  1       1  0  0   0  1  0   0  0  1
                      -1  0  0   0 -1  0   0  0 -1      -1  0  0   0 -1  0   0  0 -1
                       0  1  0   1  0  0   0  0  1       0  1  0   1  0  0   0  0  1
                       0 -1  0  -1  0  0   0  0 -1       0 -1  0  -1  0  0   0  0 -1
                       0 -1  0   1 -1  0   0 -2  1       0 -1  0   1 -1  0   0 -2  1
                       0  1  0  -1  1  0   0  2 -1       0  1  0  -1  1  0   0  2 -1
                       1 -1  0   0 -1  0   0 -2  1       1 -1  0   0 -1  0   0 -2  1
                      -1  1  0   0  1  0   0  2 -1      -1  1  0   0  1  0   0  2 -1
                      -1  1  0  -1  0  0  -2  0  1      -1  1  0  -1  0  0  -2  0  1
                       1 -1  0   1  0  0   2  0 -1       1 -1  0   1  0  0   2  0 -1
                      -1  0  0  -1  1  0  -2  0  1      -1  0  0  -1  1  0  -2  0  1
                       1  0  0   1 -1  0   2  0 -1       1  0  0   1 -1  0   2  0 -1
            tnons      0.0000000  0.0000000  0.0000000    -0.0000000  0.0000000  0.5000000
                       0.0000000  0.0000000  0.0000000    -0.0000000  0.0000000  0.5000000
                       0.0000000  0.0000000  0.0000000    -0.0000000  0.0000000  0.5000000
                       0.0000000  0.0000000  0.0000000    -0.0000000  0.0000000  0.5000000
                       0.0000000  0.0000000  0.0000000    -0.0000000  0.0000000  0.5000000
                       0.0000000  0.0000000  0.0000000    -0.0000000  0.0000000  0.5000000
                       0.0000000  0.0000000  0.0000000    -0.0000000  0.0000000  0.5000000
                       0.0000000  0.0000000  0.0000000    -0.0000000  0.0000000  0.5000000
                       0.0000000  0.0000000  0.0000000    -0.0000000  0.0000000  0.5000000
                       0.0000000  0.0000000  0.0000000    -0.0000000  0.0000000  0.5000000
                       0.0000000  0.0000000  0.0000000    -0.0000000  0.0000000  0.5000000
                       0.0000000  0.0000000  0.0000000    -0.0000000  0.0000000  0.5000000
           toldfe      1.00000000E-08 Hartree
           tsmear      1.50000000E-02 Hartree
            typat      1  1  2  2
            upawu      2.93994603E-01  0.00000000E+00 Hartree
          usepawu           1
           useylm           1
              wtk        0.25000    0.50000    0.25000
           xangst      0.0000000000E+00  0.0000000000E+00  0.0000000000E+00
                       2.0955417460E+00  2.0955417460E+00 -2.0880793867E-33
                       2.0955417460E+00  2.0955417460E+00  2.0955417460E+00
                       4.1910834920E+00  4.1910834920E+00  2.0955417460E+00
            xcart      0.0000000000E+00  0.0000000000E+00  0.0000000000E+00
                       3.9600000000E+00  3.9600000000E+00 -3.9458981845E-33
                       3.9600000000E+00  3.9600000000E+00  3.9600000000E+00
                       7.9200000000E+00  7.9200000000E+00  3.9600000000E+00
             xred      0.0000000000E+00  0.0000000000E+00  0.0000000000E+00
                      -2.7710718120E-17  2.7710718120E-17  5.0000000000E-01
                       5.0000000000E-01  5.0000000000E-01  2.5000000000E-01
                       5.0000000000E-01  5.0000000000E-01  7.5000000000E-01
            znucl       28.00000    8.00000

================================================================================

 chkinp: Checking input parameters for consistency.

================================================================================
== DATASET  1 ==================================================================
-   nproc =    1

 Exchange-correlation functional for the present dataset will be:
  LDA: Perdew-Wang 92 LSD fit to Ceperley-Alder data - ixc=7
 Citation for XC functional:
  J.P.Perdew and Y.Wang, PRB 45, 13244 (1992)

 Real(R)+Recip(G) space primitive vectors, cartesian coordinates (Bohr,Bohr^-1):
 R(1)=  0.0000000  3.9600000  3.9600000  G(1)= -0.1262626  0.1262626  0.1262626
 R(2)=  3.9600000  0.0000000  3.9600000  G(2)=  0.1262626 -0.1262626  0.1262626
 R(3)=  7.9200000  7.9200000  0.0000000  G(3)=  0.0631313  0.0631313 -0.0631313
 Unit cell volume ucvol=  2.4839654E+02 bohr^3
 Angles (23,13,12)=  6.00000000E+01  6.00000000E+01  6.00000000E+01 degrees

 Coarse grid specifications (used for wave-functions):

 getcut: wavevector=  0.0000  0.0000  0.0000  ngfft=  20  20  40
         ecut(hartree)=     15.000   => boxcut(ratio)=   2.04837

 Fine grid specifications (used for densities):

 getcut: wavevector=  0.0000  0.0000  0.0000  ngfft=  30  30  60
         ecut(hartree)=     30.000   => boxcut(ratio)=   2.17444

--- Pseudopotential description ------------------------------------------------
- pspini: atom type   1  psp file is /home/buildbot/bb/ABINIT/abiref_gnu_9.2_openmpi/trunk__gonze3/tests/Psps_for_tests/28ni.paw
- pspatm: opening atomic psp file    /home/buildbot/bb/ABINIT/abiref_gnu_9.2_openmpi/trunk__gonze3/tests/Psps_for_tests/28ni.paw
- Paw atomic data for element Ni - Generated by AtomPAW (N. Holzwarth) + AtomPAW2Abinit v3.0.5
- 28.00000  18.00000  20061204                znucl, zion, pspdat
    7    7    2    0       350   0.00000      pspcod,pspxc,lmax,lloc,mmax,r2well
 Pseudopotential format is: paw3
 basis_size (lnmax)=  5 (lmn_size= 13), orbitals=   0   0   1   1   2
 Spheres core radius: rc_sph= 2.30000000
 3 radial meshes are used:
  - mesh 1: r(i)=AA*exp(BB*(i-2)), size= 350 , AA= 0.11804E-04 BB= 0.35000E-01
  - mesh 2: r(i)=step*(i-1), size= 921 , step= 0.25000E-02
  - mesh 3: r(i)=AA*exp(BB*(i-2)), size= 391 , AA= 0.11804E-04 BB= 0.35000E-01
 Shapefunction is SIN type: shapef(r)=[sin(pi*r/rshp)/(pi*r/rshp)]**2
 Radius for shape functions = sphere core radius
 Radial grid used for partial waves is grid 1
 Radial grid used for projectors is grid  2
 Radial grid used for (t)core density is grid 1
 Radial grid used for Vloc is grid 3
 Compensation charge density is taken into account in XC energy/potential
 pspatm: atomic psp has been read  and splines computed

- pspini: atom type   2  psp file is /home/buildbot/bb/ABINIT/abiref_gnu_9.2_openmpi/trunk__gonze3/tests/Psps_for_tests/8o.2.paw
- pspatm: opening atomic psp file    /home/buildbot/bb/ABINIT/abiref_gnu_9.2_openmpi/trunk__gonze3/tests/Psps_for_tests/8o.2.paw
- Paw atomic data extracted from US-psp (D.Vanderbilt): Oxygen
-  8.00000   6.00000  20050722                znucl, zion, pspdat
    7   11    2    0       489   0.00000      pspcod,pspxc,lmax,lloc,mmax,r2well
 Pseudopotential format is: paw3
 basis_size (lnmax)=  6 (lmn_size= 18), orbitals=   0   0   1   1   2   2
 Spheres core radius: rc_sph= 1.21105161
 4 radial meshes are used:
  - mesh 1: r(i)=AA*[exp(BB*(i-1))-1], size= 489 , AA= 0.30984E-03 BB= 0.16949E-01
  - mesh 2: r(i)=AA*[exp(BB*(i-1))-1], size= 548 , AA= 0.30984E-03 BB= 0.16949E-01
  - mesh 3: r(i)=AA*[exp(BB*(i-1))-1], size= 509 , AA= 0.30984E-03 BB= 0.16949E-01
  - mesh 4: r(i)=AA*[exp(BB*(i-1))-1], size= 613 , AA= 0.30984E-03 BB= 0.16949E-01
 Shapefunction is SIN type: shapef(r)=[sin(pi*r/rshp)/(pi*r/rshp)]**2
 Radius for shape functions = sphere core radius
 Radial grid used for partial waves is grid 1
 Radial grid used for projectors is grid  2
 Radial grid used for (t)core density is grid 3
 Radial grid used for Vloc is grid 4
 Compensation charge density is taken into account in XC energy/potential
 pspatm: atomic psp has been read  and splines computed

   5.32753584E+03                                ecore*ucvol(ha*bohr**3)
--------------------------------------------------------------------------------

_setup2: Arith. and geom. avg. npw (full set) are     686.250     686.229


 ******************************************
 LDA+U Method used: FLL
 ******************************************

================================================================================

     iter   Etot(hartree)      deltaE(h)  residm     nres2
 ETOT  1  -369.81109933336    -3.698E+02 1.057E+01 2.869E+02
 ETOT  2  -373.12793575901    -3.317E+00 2.329E-02 1.942E+02
 ETOT  3  -372.84340504691     2.845E-01 3.481E-02 3.383E+01
 ETOT  4  -372.90152034087    -5.812E-02 2.024E-02 5.858E+00
 ETOT  5  -372.90163763135    -1.173E-04 1.284E-02 1.720E+00
 ETOT  6  -372.90617369217    -4.536E-03 1.247E-03 1.501E-01
 ETOT  7  -372.90842814981    -2.254E-03 4.022E-04 1.079E-01
 ETOT  8  -372.90869711539    -2.690E-04 8.936E-05 1.326E-02
 ETOT  9  -372.90891974829    -2.226E-04 9.336E-05 8.891E-03
 ETOT 10  -372.90893387505    -1.413E-05 2.814E-05 8.946E-04
 ETOT 11  -372.90893696598    -3.091E-06 3.114E-05 1.180E-04
 ETOT 12  -372.90893651688     4.491E-07 9.127E-06 3.134E-06
 ETOT 13  -372.90893656527    -4.839E-08 1.029E-05 1.390E-06
 ETOT 14  -372.90893656539    -1.233E-10 3.043E-06 2.550E-07
 ETOT 15  -372.90893656865    -3.261E-09 3.395E-06 4.177E-08

 At SCF step   15, etot is converged : 
  for the second time, diff in etot=  3.261E-09 < toldfe=  1.000E-08

 Cartesian components of stress tensor (hartree/bohr^3)
  sigma(1 1)=  9.02002790E-04  sigma(3 2)=  3.50741205E-05
  sigma(2 2)=  9.02002790E-04  sigma(3 1)=  3.50741205E-05
  sigma(3 3)=  9.02002790E-04  sigma(2 1)= -3.50741205E-05

 Integrated electronic and magnetization densities in atomic spheres:
 ---------------------------------------------------------------------
 Radius=ratsph(iatom), smearing ratsm=  0.0000. Diff(up-dn)=approximate z local magnetic moment.
 Atom    Radius    up_density   dn_density  Total(up+dn)  Diff(up-dn)
    1   2.30000     9.285144     7.537219     16.822363     1.747925
    2   2.30000     7.537219     9.285144     16.822363    -1.747925
    3   1.21105     1.848967     1.848967      3.697933     0.000000
    4   1.21105     1.848967     1.848967      3.697933     0.000000
 ---------------------------------------------------------------------
  Sum:             20.520297    20.520297     41.040594     0.000000
 Total magnetization (from the atomic spheres):             0.000000
 Total magnetization (exact up - dn):                      -0.000000

 PAW TEST:
 ==== Compensation charge inside spheres ============
 The following values must be close to each other ...
 Compensation charge over spherical meshes =     22.203925554103634
 Compensation charge over fine fft grid    =     22.204072139406833

 ==== Results concerning PAW augmentation regions ====

 Total pseudopotential strength Dij (hartree):
 Atom #  1 - Spin component 1
  -2.83855  -0.94338   0.00000   0.00000   0.00000   0.00000   0.00000   0.00000  -0.00006   0.00006   0.00000   0.00006 ...
  -0.94338  -0.56736   0.00000   0.00000   0.00000   0.00000   0.00000   0.00000  -0.00002   0.00002   0.00000   0.00002 ...
   0.00000   0.00000  -2.25085   0.00006  -0.00006  -0.50420   0.00001  -0.00001   0.00000   0.00000   0.00000   0.00000 ...
   0.00000   0.00000   0.00006  -2.25085   0.00006   0.00001  -0.50420   0.00001   0.00000   0.00000   0.00000   0.00000 ...
   0.00000   0.00000  -0.00006   0.00006  -2.25085  -0.00001   0.00001  -0.50420   0.00000   0.00000   0.00000   0.00000 ...
   0.00000   0.00000  -0.50420   0.00001  -0.00001  -0.32049   0.00001  -0.00001   0.00000   0.00000   0.00000   0.00000 ...
   0.00000   0.00000   0.00001  -0.50420   0.00001   0.00001  -0.32049   0.00001   0.00000   0.00000   0.00000   0.00000 ...
   0.00000   0.00000  -0.00001   0.00001  -0.50420  -0.00001   0.00001  -0.32049   0.00000   0.00000   0.00000   0.00000 ...
  -0.00006  -0.00002   0.00000   0.00000   0.00000   0.00000   0.00000   0.00000  -0.43189   0.00004   0.00019   0.00004 ...
   0.00006   0.00002   0.00000   0.00000   0.00000   0.00000   0.00000   0.00000   0.00004  -0.43189   0.00009  -0.00004 ...
   0.00000   0.00000   0.00000   0.00000   0.00000   0.00000   0.00000   0.00000   0.00019   0.00009  -0.49194   0.00009 ...
   0.00006   0.00002   0.00000   0.00000   0.00000   0.00000   0.00000   0.00000   0.00004  -0.00004   0.00009  -0.43189 ...
   ...  only 12  components have been written...
 Atom #  1 - Spin component 2
  -2.79811  -0.92648   0.00000   0.00000   0.00000   0.00000   0.00000   0.00000   0.00000  -0.00000   0.00000  -0.00000 ...
  -0.92648  -0.56641   0.00000   0.00000   0.00000   0.00000   0.00000   0.00000  -0.00001   0.00001   0.00000   0.00001 ...
   0.00000   0.00000  -2.19660  -0.00000   0.00000  -0.48875  -0.00000   0.00000   0.00000   0.00000   0.00000   0.00000 ...
   0.00000   0.00000  -0.00000  -2.19660  -0.00000  -0.00000  -0.48875  -0.00000   0.00000   0.00000   0.00000   0.00000 ...
   0.00000   0.00000   0.00000  -0.00000  -2.19660   0.00000  -0.00000  -0.48875   0.00000   0.00000   0.00000   0.00000 ...
   0.00000   0.00000  -0.48875  -0.00000   0.00000  -0.31773   0.00000  -0.00000   0.00000   0.00000   0.00000   0.00000 ...
   0.00000   0.00000  -0.00000  -0.48875  -0.00000   0.00000  -0.31773   0.00000   0.00000   0.00000   0.00000   0.00000 ...
   0.00000   0.00000   0.00000  -0.00000  -0.48875  -0.00000   0.00000  -0.31773   0.00000   0.00000   0.00000   0.00000 ...
   0.00000  -0.00001   0.00000   0.00000   0.00000   0.00000   0.00000   0.00000  -0.41655   0.00008  -0.00039   0.00008 ...
  -0.00000   0.00001   0.00000   0.00000   0.00000   0.00000   0.00000   0.00000   0.00008  -0.41655  -0.00019  -0.00008 ...
   0.00000   0.00000   0.00000   0.00000   0.00000   0.00000   0.00000   0.00000  -0.00039  -0.00019  -0.15878  -0.00019 ...
  -0.00000   0.00001   0.00000   0.00000   0.00000   0.00000   0.00000   0.00000   0.00008  -0.00008  -0.00019  -0.41655 ...
   ...  only 12  components have been written...
 Atom #  4 - Spin component 1
   0.64321   1.08244   0.00018  -0.00018   0.00018   0.00028  -0.00028   0.00028  -0.00002   0.00002   0.00000   0.00002 ...
   1.08244   1.81861   0.00030  -0.00030   0.00030   0.00046  -0.00046   0.00046  -0.00002   0.00002   0.00000   0.00002 ...
   0.00018   0.00030  -0.28949  -0.00005   0.00005  -0.32764  -0.00008   0.00008  -0.00009   0.00009   0.00004  -0.00000 ...
  -0.00018  -0.00030  -0.00005  -0.28949  -0.00005  -0.00008  -0.32764  -0.00008  -0.00000  -0.00009   0.00007  -0.00009 ...
   0.00018   0.00030   0.00005  -0.00005  -0.28949   0.00008  -0.00008  -0.32764  -0.00009  -0.00000   0.00004   0.00009 ...
   0.00028   0.00046  -0.32764  -0.00008   0.00008  -0.33658  -0.00010   0.00010  -0.00012   0.00012   0.00005  -0.00000 ...
  -0.00028  -0.00046  -0.00008  -0.32764  -0.00008  -0.00010  -0.33658  -0.00010  -0.00000  -0.00012   0.00011  -0.00012 ...
   0.00028   0.00046   0.00008  -0.00008  -0.32764   0.00010  -0.00010  -0.33658  -0.00012  -0.00000   0.00005   0.00012 ...
  -0.00002  -0.00002  -0.00009  -0.00000  -0.00009  -0.00012  -0.00000  -0.00012  -0.01643  -0.00001  -0.00001  -0.00001 ...
   0.00002   0.00002   0.00009  -0.00009  -0.00000   0.00012  -0.00012  -0.00000  -0.00001  -0.01643  -0.00000   0.00001 ...
   0.00000   0.00000   0.00004   0.00007   0.00004   0.00005   0.00011   0.00005  -0.00001  -0.00000  -0.01645  -0.00000 ...
   0.00002   0.00002  -0.00000  -0.00009   0.00009  -0.00000  -0.00012   0.00012  -0.00001   0.00001  -0.00000  -0.01643 ...
   ...  only 12  components have been written...
 Atom #  4 - Spin component 2
   0.64321   1.08244  -0.00018   0.00018  -0.00018  -0.00028   0.00028  -0.00028  -0.00002   0.00002   0.00000   0.00002 ...
   1.08244   1.81861  -0.00030   0.00030  -0.00030  -0.00046   0.00046  -0.00046  -0.00002   0.00002   0.00000   0.00002 ...
  -0.00018  -0.00030  -0.28949  -0.00005   0.00005  -0.32764  -0.00008   0.00008   0.00009  -0.00009  -0.00004   0.00000 ...
   0.00018   0.00030  -0.00005  -0.28949  -0.00005  -0.00008  -0.32764  -0.00008   0.00000   0.00009  -0.00007   0.00009 ...
  -0.00018  -0.00030   0.00005  -0.00005  -0.28949   0.00008  -0.00008  -0.32764   0.00009   0.00000  -0.00004  -0.00009 ...
  -0.00028  -0.00046  -0.32764  -0.00008   0.00008  -0.33658  -0.00010   0.00010   0.00012  -0.00012  -0.00005   0.00000 ...
   0.00028   0.00046  -0.00008  -0.32764  -0.00008  -0.00010  -0.33658  -0.00010   0.00000   0.00012  -0.00011   0.00012 ...
  -0.00028  -0.00046   0.00008  -0.00008  -0.32764   0.00010  -0.00010  -0.33658   0.00012   0.00000  -0.00005  -0.00012 ...
  -0.00002  -0.00002   0.00009   0.00000   0.00009   0.00012   0.00000   0.00012  -0.01643  -0.00001  -0.00001  -0.00001 ...
   0.00002   0.00002  -0.00009   0.00009   0.00000  -0.00012   0.00012   0.00000  -0.00001  -0.01643  -0.00000   0.00001 ...
   0.00000   0.00000  -0.00004  -0.00007  -0.00004  -0.00005  -0.00011  -0.00005  -0.00001  -0.00000  -0.01645  -0.00000 ...
   0.00002   0.00002   0.00000   0.00009  -0.00009   0.00000   0.00012  -0.00012  -0.00001   0.00001  -0.00000  -0.01643 ...
   ...  only 12  components have been written...


 Augmentation waves occupancies Rhoij:
 Atom #  1 - Spin component 1
   1.03537  -0.08508   0.00000   0.00000   0.00000   0.00000   0.00000   0.00000   0.00028  -0.00028   0.00000  -0.00028 ...
  -0.08508   0.20614   0.00000   0.00000   0.00000   0.00000   0.00000   0.00000  -0.00063   0.00063   0.00000   0.00063 ...
   0.00000   0.00000   1.00661  -0.00024   0.00024  -0.04021   0.00071  -0.00071   0.00000   0.00000   0.00000   0.00000 ...
   0.00000   0.00000  -0.00024   1.00661  -0.00024   0.00071  -0.04021   0.00071   0.00000   0.00000   0.00000   0.00000 ...
   0.00000   0.00000   0.00024  -0.00024   1.00661  -0.00071   0.00071  -0.04021   0.00000   0.00000   0.00000   0.00000 ...
   0.00000   0.00000  -0.04021   0.00071  -0.00071   0.19821  -0.00221   0.00221   0.00000   0.00000   0.00000   0.00000 ...
   0.00000   0.00000   0.00071  -0.04021   0.00071  -0.00221   0.19821  -0.00221   0.00000   0.00000   0.00000   0.00000 ...
   0.00000   0.00000  -0.00071   0.00071  -0.04021   0.00221  -0.00221   0.19821   0.00000   0.00000   0.00000   0.00000 ...
   0.00028  -0.00063   0.00000   0.00000   0.00000   0.00000   0.00000   0.00000   1.00788  -0.00006  -0.00023  -0.00006 ...
  -0.00028   0.00063   0.00000   0.00000   0.00000   0.00000   0.00000   0.00000  -0.00006   1.00788  -0.00012   0.00006 ...
   0.00000   0.00000   0.00000   0.00000   0.00000   0.00000   0.00000   0.00000  -0.00023  -0.00012   1.03824  -0.00012 ...
  -0.00028   0.00063   0.00000   0.00000   0.00000   0.00000   0.00000   0.00000  -0.00006   0.00006  -0.00012   1.00788 ...
   ...  only 12  components have been written...
 Atom #  1 - Spin component 2
   1.03250  -0.08197   0.00000   0.00000   0.00000   0.00000   0.00000   0.00000   0.00021  -0.00021   0.00000  -0.00021 ...
  -0.08197   0.20823   0.00000   0.00000   0.00000   0.00000   0.00000   0.00000  -0.00047   0.00047   0.00000   0.00047 ...
   0.00000   0.00000   0.99992  -0.00051   0.00051  -0.03023   0.00146  -0.00146   0.00000   0.00000   0.00000   0.00000 ...
   0.00000   0.00000  -0.00051   0.99992  -0.00051   0.00146  -0.03023   0.00146   0.00000   0.00000   0.00000   0.00000 ...
   0.00000   0.00000   0.00051  -0.00051   0.99992  -0.00146   0.00146  -0.03023   0.00000   0.00000   0.00000   0.00000 ...
   0.00000   0.00000  -0.03023   0.00146  -0.00146   0.20021  -0.00423   0.00423   0.00000   0.00000   0.00000   0.00000 ...
   0.00000   0.00000   0.00146  -0.03023   0.00146  -0.00423   0.20021  -0.00423   0.00000   0.00000   0.00000   0.00000 ...
   0.00000   0.00000  -0.00146   0.00146  -0.03023   0.00423  -0.00423   0.20021   0.00000   0.00000   0.00000   0.00000 ...
   0.00021  -0.00047   0.00000   0.00000   0.00000   0.00000   0.00000   0.00000   1.00276  -0.00011   0.00154  -0.00011 ...
  -0.00021   0.00047   0.00000   0.00000   0.00000   0.00000   0.00000   0.00000  -0.00011   1.00276   0.00077   0.00011 ...
   0.00000   0.00000   0.00000   0.00000   0.00000   0.00000   0.00000   0.00000   0.00154   0.00077   0.08649   0.00077 ...
  -0.00021   0.00047   0.00000   0.00000   0.00000   0.00000   0.00000   0.00000  -0.00011   0.00011   0.00077   1.00276 ...
   ...  only 12  components have been written...
 Atom #  4 - Spin component 1
   1.07117  -0.06237   0.00204  -0.00204   0.00204  -0.00273   0.00273  -0.00273  -0.00312   0.00312   0.00000   0.00312 ...
  -0.06237   0.01119  -0.00706   0.00706  -0.00706  -0.00100   0.00100  -0.00100   0.00018  -0.00018   0.00000  -0.00018 ...
   0.00204  -0.00706   1.03639  -0.00045   0.00045  -0.12255  -0.00087   0.00087  -0.00778   0.00778   0.00271   0.00022 ...
  -0.00204   0.00706  -0.00045   1.03639  -0.00045  -0.00087  -0.12255  -0.00087   0.00022  -0.00778   0.00541  -0.00778 ...
   0.00204  -0.00706   0.00045  -0.00045   1.03639   0.00087  -0.00087  -0.12255  -0.00778   0.00022   0.00271   0.00778 ...
  -0.00273  -0.00100  -0.12255  -0.00087   0.00087   0.02206  -0.00013   0.00013   0.00102  -0.00102  -0.00077   0.00012 ...
   0.00273   0.00100  -0.00087  -0.12255  -0.00087  -0.00013   0.02206  -0.00013   0.00012   0.00102  -0.00154   0.00102 ...
  -0.00273  -0.00100   0.00087  -0.00087  -0.12255   0.00013  -0.00013   0.02206   0.00102   0.00012  -0.00077  -0.00102 ...
  -0.00312   0.00018  -0.00778   0.00022  -0.00778   0.00102   0.00012   0.00102   0.01059  -0.00015   0.00094  -0.00015 ...
   0.00312  -0.00018   0.00778  -0.00778   0.00022  -0.00102   0.00102   0.00012  -0.00015   0.01059   0.00047   0.00015 ...
   0.00000   0.00000   0.00271   0.00541   0.00271  -0.00077  -0.00154  -0.00077   0.00094   0.00047   0.00865   0.00047 ...
   0.00312  -0.00018   0.00022  -0.00778   0.00778   0.00012   0.00102  -0.00102  -0.00015   0.00015   0.00047   0.01059 ...
   ...  only 12  components have been written...
 Atom #  4 - Spin component 2
   1.07117  -0.06237  -0.00204   0.00204  -0.00204   0.00273  -0.00273   0.00273  -0.00312   0.00312   0.00000   0.00312 ...
  -0.06237   0.01119   0.00706  -0.00706   0.00706   0.00100  -0.00100   0.00100   0.00018  -0.00018   0.00000  -0.00018 ...
  -0.00204   0.00706   1.03639  -0.00045   0.00045  -0.12255  -0.00087   0.00087   0.00778  -0.00778  -0.00271  -0.00022 ...
   0.00204  -0.00706  -0.00045   1.03639  -0.00045  -0.00087  -0.12255  -0.00087  -0.00022   0.00778  -0.00541   0.00778 ...
  -0.00204   0.00706   0.00045  -0.00045   1.03639   0.00087  -0.00087  -0.12255   0.00778  -0.00022  -0.00271  -0.00778 ...
   0.00273   0.00100  -0.12255  -0.00087   0.00087   0.02206  -0.00013   0.00013  -0.00102   0.00102   0.00077  -0.00012 ...
  -0.00273  -0.00100  -0.00087  -0.12255  -0.00087  -0.00013   0.02206  -0.00013  -0.00012  -0.00102   0.00154  -0.00102 ...
   0.00273   0.00100   0.00087  -0.00087  -0.12255   0.00013  -0.00013   0.02206  -0.00102  -0.00012   0.00077   0.00102 ...
  -0.00312   0.00018   0.00778  -0.00022   0.00778  -0.00102  -0.00012  -0.00102   0.01059  -0.00015   0.00094  -0.00015 ...
   0.00312  -0.00018  -0.00778   0.00778  -0.00022   0.00102  -0.00102  -0.00012  -0.00015   0.01059   0.00047   0.00015 ...
   0.00000   0.00000  -0.00271  -0.00541  -0.00271   0.00077   0.00154   0.00077   0.00094   0.00047   0.00865   0.00047 ...
   0.00312  -0.00018  -0.00022   0.00778  -0.00778  -0.00012  -0.00102   0.00102  -0.00015   0.00015   0.00047   0.01059 ...
   ...  only 12  components have been written...

 "PAW+U" part of augmentation waves occupancies Rhoij:
 Atom #  1 - L=2 ONLY - Spin component 1
   1.00788  -0.00006  -0.00023  -0.00006   0.00000
  -0.00006   1.00788  -0.00012   0.00006   0.00020
  -0.00023  -0.00012   1.03824  -0.00012   0.00000
  -0.00006   0.00006  -0.00012   1.00788  -0.00020
   0.00000   0.00020   0.00000  -0.00020   1.03824
 Atom #  1 - L=2 ONLY - Spin component 2
   1.00276  -0.00011   0.00154  -0.00011   0.00000
  -0.00011   1.00276   0.00077   0.00011  -0.00133
   0.00154   0.00077   0.08649   0.00077   0.00000
  -0.00011   0.00011   0.00077   1.00276   0.00133
   0.00000  -0.00133   0.00000   0.00133   0.08649
 Atom #  2 - L=2 ONLY - Spin component 1
   1.00276  -0.00011   0.00154  -0.00011   0.00000
  -0.00011   1.00276   0.00077   0.00011  -0.00133
   0.00154   0.00077   0.08649   0.00077   0.00000
  -0.00011   0.00011   0.00077   1.00276   0.00133
   0.00000  -0.00133   0.00000   0.00133   0.08649
 Atom #  2 - L=2 ONLY - Spin component 2
   1.00788  -0.00006  -0.00023  -0.00006   0.00000
  -0.00006   1.00788  -0.00012   0.00006   0.00020
  -0.00023  -0.00012   1.03824  -0.00012   0.00000
  -0.00006   0.00006  -0.00012   1.00788  -0.00020
   0.00000   0.00020   0.00000  -0.00020   1.03824

 ---------- LDA+U DATA --------------------------------------------------- 

 ====== For Atom     1, occupations for correlated orbitals. lpawu =   2

 Atom   1. Occ. for lpawu and for spin  1 =   4.89975
 Atom   1. Occ. for lpawu and for spin  2 =   3.05626
 => On atom   1,  local Mag. for lpawu is       -1.843491

 == Occupation matrix for correlated orbitals:

 Occupation matrix for spin  1
     0.96828   -0.00006   -0.00022   -0.00006    0.00000
    -0.00006    0.96828   -0.00011    0.00006    0.00019
    -0.00022   -0.00011    0.99745   -0.00011    0.00000
    -0.00006    0.00006   -0.00011    0.96828   -0.00019
     0.00000    0.00019    0.00000   -0.00019    0.99745


 Occupation matrix for spin  2
     0.96336   -0.00011    0.00148   -0.00011    0.00000
    -0.00011    0.96336    0.00074    0.00011   -0.00128
     0.00148    0.00074    0.08309    0.00074    0.00000
    -0.00011    0.00011    0.00074    0.96336    0.00128
     0.00000   -0.00128    0.00000    0.00128    0.08309


 ====== For Atom     2, occupations for correlated orbitals. lpawu =   2

 Atom   2. Occ. for lpawu and for spin  1 =   3.05626
 Atom   2. Occ. for lpawu and for spin  2 =   4.89975
 => On atom   2,  local Mag. for lpawu is        1.843491

 == Occupation matrix for correlated orbitals:

 Occupation matrix for spin  1
     0.96336   -0.00011    0.00148   -0.00011    0.00000
    -0.00011    0.96336    0.00074    0.00011   -0.00128
     0.00148    0.00074    0.08309    0.00074    0.00000
    -0.00011    0.00011    0.00074    0.96336    0.00128
     0.00000   -0.00128    0.00000    0.00128    0.08309


 Occupation matrix for spin  2
     0.96828   -0.00006   -0.00022   -0.00006    0.00000
    -0.00006    0.96828   -0.00011    0.00006    0.00019
    -0.00022   -0.00011    0.99745   -0.00011    0.00000
    -0.00006    0.00006   -0.00011    0.96828   -0.00019
     0.00000    0.00019    0.00000   -0.00019    0.99745



================================================================================

 ----iterations are completed or convergence reached----

 Mean square residual over all n,k,spin=   50.742E-09; max=  33.950E-07
 reduced coordinates (array xred) for    4 atoms
       0.000000000000      0.000000000000      0.000000000000
      -0.000000000000      0.000000000000      0.500000000000
       0.500000000000      0.500000000000      0.250000000000
       0.500000000000      0.500000000000      0.750000000000
 rms dE/dt=  0.0000E+00; max dE/dt=  0.0000E+00; dE/dt below (all hartree)
    1       0.000000000000      0.000000000000      0.000000000000
    2       0.000000000000      0.000000000000      0.000000000000
    3       0.000000000000      0.000000000000      0.000000000000
    4       0.000000000000      0.000000000000      0.000000000000

 cartesian coordinates (angstrom) at end:
    1      0.00000000000000     0.00000000000000     0.00000000000000
    2      2.09554174601640     2.09554174601640    -0.00000000000000
    3      2.09554174601640     2.09554174601640     2.09554174601640
    4      4.19108349203280     4.19108349203280     2.09554174601640

 cartesian forces (hartree/bohr) at end:
    1     -0.00000000000000    -0.00000000000000    -0.00000000000000
    2     -0.00000000000000    -0.00000000000000    -0.00000000000000
    3     -0.00000000000000    -0.00000000000000    -0.00000000000000
    4     -0.00000000000000    -0.00000000000000    -0.00000000000000
 frms,max,avg= 0.0000000E+00 0.0000000E+00   0.000E+00  0.000E+00  0.000E+00 h/b

 cartesian forces (eV/Angstrom) at end:
    1     -0.00000000000000    -0.00000000000000    -0.00000000000000
    2     -0.00000000000000    -0.00000000000000    -0.00000000000000
    3     -0.00000000000000    -0.00000000000000    -0.00000000000000
    4     -0.00000000000000    -0.00000000000000    -0.00000000000000
 frms,max,avg= 0.0000000E+00 0.0000000E+00   0.000E+00  0.000E+00  0.000E+00 e/A
 length scales=  7.920000000000  7.920000000000  7.920000000000 bohr
              =  4.191083492033  4.191083492033  4.191083492033 angstroms
 prteigrs : about to open file tdftu_2o_EIG
 Fermi (or HOMO) energy (hartree) =   0.25309   Average Vxc (hartree)=  -0.52525
 Eigenvalues (hartree) for nkpt=   3  k points:
 kpt#   1, nband= 40, wtk=  0.25000, kpt=  0.2500  0.2500  0.2500 (reduced coord)
  -3.46126   -3.38719   -2.10478   -2.10456   -2.10423   -2.03275   -2.03273   -2.03236
  -0.46836   -0.43089   -0.06322   -0.05396   -0.03550   -0.00261    0.02424    0.02636
   0.03217    0.06228    0.07942    0.09316    0.11564    0.11725    0.14794    0.15729
   0.34296    0.36349    0.41290    0.53309    0.57908    0.64141    0.71856    0.78869
   0.79750    0.84995    0.93442    1.04077    1.10957    1.12830    1.21535    1.23816
      occupation numbers for kpt#   1
   2.00000    2.00000    2.00000    2.00000    2.00000    2.00000    2.00000    2.00000
   2.00000    2.00000    2.00000    2.00000    2.00000    2.00000    2.00000    2.00000
   2.00000    2.00000    2.00000    2.00000    2.00000    2.00000    2.00000    2.00000
   0.00000    0.00000    0.00000    0.00000    0.00000    0.00000    0.00000    0.00000
   0.00000    0.00000    0.00000    0.00000    0.00000    0.00000    0.00000    0.00000
 prteigrs : prtvol=0 or 1, do not print more k-points.


--------------------------------------------------------------------------------
 Components of total free energy (in Hartree) :

    Kinetic energy  =  4.51407239275588E+01
    Hartree energy  =  5.63725120806863E+01
    XC energy       = -3.22107654922301E+01
    Ewald energy    = -2.38122809319194E+02
    PspCore energy  =  2.14477051759375E+01
    Loc. psp. energy= -1.52815938886550E+02
    Spherical terms = -7.27203212921808E+01
    >>>>> Internal E= -3.72908893805972E+02

    -kT*entropy     = -6.80072964273240E-17
    >>>>>>>>> Etotal= -3.72908893805972E+02

 "Double-counting" decomposition of free energy:
    Band energy     = -3.89756701580833E+01
    Ewald energy    =-2.38122809319194E+02
    PspCore energy  =  2.14477051759375E+01
    Dble-C XC-energy= -4.62931007418265E+01
    Spherical terms = -7.09650615254865E+01
    >>>>> Internal E= -3.72908936568653E+02

    -kT*entropy     = -6.80072964273240E-17
    >>>> Etotal (DC)= -3.72908936568653E+02

  >Total energy in eV           = -1.01473670541623E+04
  >Total DC energy in eV        = -1.01473682177940E+04
--------------------------------------------------------------------------------



 Cartesian components of stress tensor (hartree/bohr^3)
  sigma(1 1)=  9.02002790E-04  sigma(3 2)=  3.50741205E-05
  sigma(2 2)=  9.02002790E-04  sigma(3 1)=  3.50741205E-05
  sigma(3 3)=  9.02002790E-04  sigma(2 1)= -3.50741205E-05

-Cartesian components of stress tensor (GPa)         [Pressure= -2.6538E+01 GPa]
- sigma(1 1)=  2.65378338E+01  sigma(3 2)=  1.03191608E+00
- sigma(2 2)=  2.65378338E+01  sigma(3 1)=  1.03191608E+00
- sigma(3 3)=  2.65378338E+01  sigma(2 1)= -1.03191608E+00

== END DATASET(S) ==============================================================
================================================================================
  
 -outvars: echo values of variables after computation  --------
            acell      7.9200000000E+00  7.9200000000E+00  7.9200000000E+00 Bohr
              amu      5.86900000E+01  1.59994000E+01
      chksymbreak           0
             ecut      1.50000000E+01 Hartree
           etotal     -3.7290893657E+02
            fcart     -0.0000000000E+00 -0.0000000000E+00 -0.0000000000E+00
                      -0.0000000000E+00 -0.0000000000E+00 -0.0000000000E+00
                      -0.0000000000E+00 -0.0000000000E+00 -0.0000000000E+00
                      -0.0000000000E+00 -0.0000000000E+00 -0.0000000000E+00
-          fftalg         312
              ixc           7
            jpawu      2.93994603E-02  0.00000000E+00 Hartree
              kpt      2.50000000E-01  2.50000000E-01  2.50000000E-01
                      -2.50000000E-01  2.50000000E-01  2.50000000E-01
                      -2.50000000E-01 -2.50000000E-01  2.50000000E-01
         kptrlatt        2    0    0      0    2    0      0    0    2
          kptrlen      1.12005714E+01
            lpawu           2      -1
P           mkmem           3
            natom           4
            nband          40
            ngfft          20      20      40
          ngfftdg          30      30      60
             nkpt           3
           nspden           2
            nstep          50
             nsym          24
           ntypat           2
              occ      2.000000  2.000000  2.000000  2.000000  2.000000  2.000000
                       2.000000  2.000000  2.000000  2.000000  2.000000  2.000000
                       2.000000  2.000000  2.000000  2.000000  2.000000  2.000000
                       2.000000  2.000000  2.000000  2.000000  2.000000  2.000000
                       0.000000  0.000000  0.000000  0.000000  0.000000  0.000000
                       0.000000  0.000000  0.000000  0.000000  0.000000  0.000000
                       0.000000  0.000000  0.000000  0.000000
                       2.000000  2.000000  2.000000  2.000000  2.000000  2.000000
                       2.000000  2.000000  2.000000  2.000000  2.000000  2.000000
                       2.000000  2.000000  2.000000  2.000000  2.000000  2.000000
                       2.000000  2.000000  2.000000  2.000000  2.000000  2.000000
                       0.000000  0.000000  0.000000  0.000000  0.000000  0.000000
                       0.000000  0.000000  0.000000  0.000000  0.000000  0.000000
                       0.000000  0.000000  0.000000  0.000000
                       2.000000  2.000000  2.000000  2.000000  2.000000  2.000000
                       2.000000  2.000000  2.000000  2.000000  2.000000  2.000000
                       2.000000  2.000000  2.000000  2.000000  2.000000  2.000000
                       2.000000  2.000000  2.000000  2.000000  2.000000  2.000000
                       0.000000  0.000000  0.000000  0.000000  0.000000  0.000000
                       0.000000  0.000000  0.000000  0.000000  0.000000  0.000000
                       0.000000  0.000000  0.000000  0.000000
           occopt           7
        pawecutdg      3.00000000E+01 Hartree
            rprim      0.0000000000E+00  5.0000000000E-01  5.0000000000E-01
                       5.0000000000E-01  0.0000000000E+00  5.0000000000E-01
                       1.0000000000E+00  1.0000000000E+00  0.0000000000E+00
           shiftk      5.00000000E-01  5.00000000E-01  5.00000000E-01
          spgroup         166
           spinat      0.0000000000E+00  0.0000000000E+00  1.0000000000E+00
                       0.0000000000E+00  0.0000000000E+00 -1.0000000000E+00
                       0.0000000000E+00  0.0000000000E+00  0.0000000000E+00
                       0.0000000000E+00  0.0000000000E+00  0.0000000000E+00
           strten      9.0200279002E-04  9.0200279002E-04  9.0200279002E-04
                       3.5074120534E-05  3.5074120534E-05 -3.5074120534E-05
           symafm        1   -1    1   -1    1   -1    1   -1    1   -1
                         1   -1    1   -1    1   -1    1   -1    1   -1
                         1   -1    1   -1
           symrel      1  0  0   0  1  0   0  0  1       1  0  0   0  1  0   0  0  1
                      -1  0  0   0 -1  0   0  0 -1      -1  0  0   0 -1  0   0  0 -1
                       0  1  0   1  0  0   0  0  1       0  1  0   1  0  0   0  0  1
                       0 -1  0  -1  0  0   0  0 -1       0 -1  0  -1  0  0   0  0 -1
                       0 -1  0   1 -1  0   0 -2  1       0 -1  0   1 -1  0   0 -2  1
                       0  1  0  -1  1  0   0  2 -1       0  1  0  -1  1  0   0  2 -1
                       1 -1  0   0 -1  0   0 -2  1       1 -1  0   0 -1  0   0 -2  1
                      -1  1  0   0  1  0   0  2 -1      -1  1  0   0  1  0   0  2 -1
                      -1  1  0  -1  0  0  -2  0  1      -1  1  0  -1  0  0  -2  0  1
                       1 -1  0   1  0  0   2  0 -1       1 -1  0   1  0  0   2  0 -1
                      -1  0  0  -1  1  0  -2  0  1      -1  0  0  -1  1  0  -2  0  1
                       1  0  0   1 -1  0   2  0 -1       1  0  0   1 -1  0   2  0 -1
            tnons      0.0000000  0.0000000  0.0000000    -0.0000000  0.0000000  0.5000000
                       0.0000000  0.0000000  0.0000000    -0.0000000  0.0000000  0.5000000
                       0.0000000  0.0000000  0.0000000    -0.0000000  0.0000000  0.5000000
                       0.0000000  0.0000000  0.0000000    -0.0000000  0.0000000  0.5000000
                       0.0000000  0.0000000  0.0000000    -0.0000000  0.0000000  0.5000000
                       0.0000000  0.0000000  0.0000000    -0.0000000  0.0000000  0.5000000
                       0.0000000  0.0000000  0.0000000    -0.0000000  0.0000000  0.5000000
                       0.0000000  0.0000000  0.0000000    -0.0000000  0.0000000  0.5000000
                       0.0000000  0.0000000  0.0000000    -0.0000000  0.0000000  0.5000000
                       0.0000000  0.0000000  0.0000000    -0.0000000  0.0000000  0.5000000
                       0.0000000  0.0000000  0.0000000    -0.0000000  0.0000000  0.5000000
                       0.0000000  0.0000000  0.0000000    -0.0000000  0.0000000  0.5000000
           toldfe      1.00000000E-08 Hartree
           tsmear      1.50000000E-02 Hartree
            typat      1  1  2  2
            upawu      2.93994603E-01  0.00000000E+00 Hartree
          usepawu           1
           useylm           1
              wtk        0.25000    0.50000    0.25000
           xangst      0.0000000000E+00  0.0000000000E+00  0.0000000000E+00
                       2.0955417460E+00  2.0955417460E+00 -2.0880793867E-33
                       2.0955417460E+00  2.0955417460E+00  2.0955417460E+00
                       4.1910834920E+00  4.1910834920E+00  2.0955417460E+00
            xcart      0.0000000000E+00  0.0000000000E+00  0.0000000000E+00
                       3.9600000000E+00  3.9600000000E+00 -3.9458981845E-33
                       3.9600000000E+00  3.9600000000E+00  3.9600000000E+00
                       7.9200000000E+00  7.9200000000E+00  3.9600000000E+00
             xred      0.0000000000E+00  0.0000000000E+00  0.0000000000E+00
                      -2.7710718120E-17  2.7710718120E-17  5.0000000000E-01
                       5.0000000000E-01  5.0000000000E-01  2.5000000000E-01
                       5.0000000000E-01  5.0000000000E-01  7.5000000000E-01
            znucl       28.00000    8.00000

================================================================================


- Timing analysis has been suppressed with timopt=0



================================================================================

 Suggested references for the acknowledgment of ABINIT usage.

 The users of ABINIT have little formal obligations with respect to the ABINIT group
 (those specified in the GNU General Public License, http://www.gnu.org/copyleft/gpl.txt).
 However, it is common practice in the scientific literature,
 to acknowledge the efforts of people that have made the research possible.
 In this spirit, please find below suggested citations of work written by ABINIT developers,
 corresponding to implementations inside of ABINIT that you have used in the present run.
 Note also that it will be of great value to readers of publications presenting these results,
 to read papers enabling them to understand the theoretical formalism and details
 of the ABINIT implementation.
 For information on why they are suggested, see also https://docs.abinit.org/theory/acknowledgments.
-
- [1] Gamma and beta cerium: LDA+U calculations of ground-state parameters.
- B. Amadon, F. Jollet and M. Torrent, Phys. Rev. B 77, 155104 (2008).
- Comment: LDA+U calculations, usepawu/=0. Strong suggestion to cite this paper.
- DOI and bibtex: see https://docs.abinit.org/theory/bibliography/#amadon2008a
-
- [2] Implementation of the Projector Augmented-Wave Method in the ABINIT code.
- M. Torrent, F. Jollet, F. Bottin, G. Zerah, and X. Gonze Comput. Mat. Science 42, 337, (2008).
- Comment: PAW calculations. Strong suggestion to cite this paper.
- DOI and bibtex: see https://docs.abinit.org/theory/bibliography/#torrent2008
-
- [3] Recent developments in the ABINIT software package.
- Computer Phys. Comm. 205, 106 (2016).
- X.Gonze, F.Jollet, F.Abreu Araujo, D.Adams, B.Amadon, T.Applencourt,
- C.Audouze, J.-M.Beuken, J.Bieder, A.Bokhanchuk, E.Bousquet, F.Bruneval
- D.Caliste, M.Cote, F.Dahm, F.Da Pieve, M.Delaveau, M.Di Gennaro,
- B.Dorado, C.Espejo, G.Geneste, L.Genovese, A.Gerossier, M.Giantomassi,
- Y.Gillet, D.R.Hamann, L.He, G.Jomard, J.Laflamme Janssen, S.Le Roux,
- A.Levitt, A.Lherbier, F.Liu, I.Lukacevic, A.Martin, C.Martins,
- M.J.T.Oliveira, S.Ponce, Y.Pouillon, T.Rangel, G.-M.Rignanese,
- A.H.Romero, B.Rousseau, O.Rubel, A.A.Shukri, M.Stankovski, M.Torrent,
- M.J.Van Setten, B.Van Troeye, M.J.Verstraete, D.Waroquier, J.Wiktor,
- B.Xu, A.Zhou, J.W.Zwanziger.
- Comment: the fourth generic paper describing the ABINIT project.
- Note that a version of this paper, that is not formatted for Computer Phys. Comm. 
- is available at https://www.abinit.org/about/ABINIT16.pdf .
- The licence allows the authors to put it on the Web.
- DOI and bibtex: see https://docs.abinit.org/theory/bibliography/#gonze2016
-
- [4] ABINIT: First-principles approach of materials and nanosystem properties.
- Computer Phys. Comm. 180, 2582-2615 (2009).
- X. Gonze, B. Amadon, P.-M. Anglade, J.-M. Beuken, F. Bottin, P. Boulanger, F. Bruneval,
- D. Caliste, R. Caracas, M. Cote, T. Deutsch, L. Genovese, Ph. Ghosez, M. Giantomassi
- S. Goedecker, D.R. Hamann, P. Hermet, F. Jollet, G. Jomard, S. Leroux, M. Mancini, S. Mazevet,
- M.J.T. Oliveira, G. Onida, Y. Pouillon, T. Rangel, G.-M. Rignanese, D. Sangalli, R. Shaltaf,
- M. Torrent, M.J. Verstraete, G. Zerah, J.W. Zwanziger
- Comment: the third generic paper describing the ABINIT project.
- Note that a version of this paper, that is not formatted for Computer Phys. Comm. 
- is available at https://www.abinit.org/about/ABINIT_CPC_v10.pdf .
- The licence allows the authors to put it on the Web.
- DOI and bibtex: see https://docs.abinit.org/theory/bibliography/#gonze2009
-
- [5] A brief introduction to the ABINIT software package.
- Z. Kristallogr. 220, 558-562 (2005).
- X. Gonze, G.-M. Rignanese, M. Verstraete, J.-M. Beuken, Y. Pouillon, R. Caracas, F. Jollet,
- M. Torrent, G. Zerah, M. Mikami, Ph. Ghosez, M. Veithen, J.-Y. Raty, V. Olevano, F. Bruneval,
- L. Reining, R. Godby, G. Onida, D.R. Hamann, and D.C. Allan.
- Comment: the second generic paper describing the ABINIT project. Note that this paper
- should be cited especially if you are using the GW part of ABINIT, as several authors
- of this part are not in the list of authors of the first or third paper.
- The .pdf of the latter paper is available at https://www.abinit.org/about/zfk_0505-06_558-562.pdf.
- Note that it should not redistributed (Copyright by Oldenburg Wissenshaftverlag,
- the licence allows the authors to put it on the Web).
- DOI and bibtex: see https://docs.abinit.org/theory/bibliography/#gonze2005
-
- Proc.   0 individual time (sec): cpu=         11.3  wall=         11.4

================================================================================

 Calculation completed.
.Delivered   1 WARNINGs and   1 COMMENTs to log file.
+Overall time at end (sec) : cpu=         11.3  wall=         11.4
