
.Version 10.3.6.4 of ABINIT, released Feb 2025.
.(MPI version, prepared for a aarch64_darwin23.6.0_gnu14.2 computer)

.Copyright (C) 1998-2025 ABINIT group .
 ABINIT comes with ABSOLUTELY NO WARRANTY.
 It is free software, and you are welcome to redistribute it
 under certain conditions (GNU General Public License,
 see ~abinit/COPYING or http://www.gnu.org/copyleft/gpl.txt).

 ABINIT is a project of the Universite Catholique de Louvain,
 Corning Inc. and other collaborators, see ~abinit/doc/developers/contributors.txt .
 Please read https://docs.abinit.org/theory/acknowledgments for suggested
 acknowledgments of the ABINIT effort.
 For more information, see https://www.abinit.org .

.Starting date : Thu  3 Apr 2025.
- ( at 17h08 )

- input  file    -> /Users/giantomassi/git_repos/abinit/_build/tests/Test_suite/tutorial_tgwr_1-tgwr_2-tgwr_3-tgwr_4-tgwr_5/tgwr_1.abi
- output file    -> tgwr_1.abo
- root for input  files -> tgwr_1i
- root for output files -> tgwr_1o

 DATASET    1 : space group Fd -3 m (#227); Bravais cF (face-center cubic)
================================================================================
 Values of the parameters that define the memory need for DATASET  1.
     intxc =       0    ionmov =       0      iscf =       7    lmnmax =       6
     lnmax =       6     mgfft =      30  mpssoang =       3    mqgrid =    3001
     natom =       2  nloc_mem =       1    nspden =       1   nspinor =       1
    nsppol =       1      nsym =      48    n1xccc =    2501    ntypat =       1
    occopt =       1   xclevel =       2
-    mband =           6        mffmem =           1         mkmem =          19
       mpw =         848          nfft =       27000          nkpt =          19
================================================================================
P This job should need less than                      11.067 Mbytes of memory.
  Rough estimation (10% accuracy) of disk space for files :
_ WF disk file :      1.477 Mbytes ; DEN or POT disk file :      0.208 Mbytes.
================================================================================

 DATASET    2 : space group Fd -3 m (#227); Bravais cF (face-center cubic)
================================================================================
 Values of the parameters that define the memory need for DATASET  2.
     intxc =       0    ionmov =       0      iscf =      -2    lmnmax =       6
     lnmax =       6     mgfft =      30  mpssoang =       3    mqgrid =    3001
     natom =       2  nloc_mem =       1    nspden =       1   nspinor =       1
    nsppol =       1      nsym =      48    n1xccc =    2501    ntypat =       1
    occopt =       1   xclevel =       2
-    mband =          12        mffmem =           1         mkmem =         101
       mpw =         869          nfft =       27000          nkpt =         101
================================================================================
P This job should need less than                      23.166 Mbytes of memory.
  Rough estimation (10% accuracy) of disk space for files :
_ WF disk file :     16.073 Mbytes ; DEN or POT disk file :      0.208 Mbytes.
================================================================================

--------------------------------------------------------------------------------
------------- Echo of variables that govern the present computation ------------
--------------------------------------------------------------------------------
-
- outvars: echo of selected default values
-   iomode0 =  0 , fftalg0 =312 , wfoptalg0 =  0
-
- outvars: echo of global parameters not present in the input file
-  max_nthreads =    0
-
 -outvars: echo values of preprocessed input variables --------
            acell      1.0260000000E+01  1.0260000000E+01  1.0260000000E+01 Bohr
              amu      2.80855000E+01
           diemac      1.20000000E+01
             ecut      1.60000000E+01 Hartree
-          fftalg         312
           getden1          0
           getden2         -1
             iscf1          7
             iscf2         -2
           istwfk1       0    0    0    0    0    0    0    0    0    0
                         0    0    0    7    0    0    0    3    2
           istwfk2       2    0    0    0    0    0    0    0    0    0
                         0    0    0    0    5    0    0    0    0    0
                         0    0    0    0    0    0    0    0    0    0
                         0    0    0    0    0    0    0    0    0    0
                         0    2    0    0    0    0    0    0    0    0
                       outvar_i_n : Printing only first  50 k-points.
              ixc          11
           jdtset        1    2
              kpt1    -1.25000000E-01 -1.25000000E-01  0.00000000E+00
                      -1.25000000E-01 -3.75000000E-01  0.00000000E+00
                      -2.50000000E-01 -2.50000000E-01  0.00000000E+00
                      -1.25000000E-01 -2.50000000E-01  1.25000000E-01
                      -1.25000000E-01  3.75000000E-01  0.00000000E+00
                      -2.50000000E-01  5.00000000E-01  0.00000000E+00
                      -1.25000000E-01  5.00000000E-01  1.25000000E-01
                      -3.75000000E-01 -3.75000000E-01  0.00000000E+00
                      -2.50000000E-01 -3.75000000E-01  1.25000000E-01
                      -1.25000000E-01 -3.75000000E-01  2.50000000E-01
                      -1.25000000E-01  1.25000000E-01  0.00000000E+00
                      -2.50000000E-01  2.50000000E-01  0.00000000E+00
                      -3.75000000E-01  3.75000000E-01  0.00000000E+00
                       5.00000000E-01  5.00000000E-01  0.00000000E+00
                      -3.75000000E-01  5.00000000E-01  1.25000000E-01
                      -2.50000000E-01  5.00000000E-01  2.50000000E-01
                      -2.50000000E-01  0.00000000E+00  0.00000000E+00
                       5.00000000E-01  0.00000000E+00  0.00000000E+00
                       0.00000000E+00  0.00000000E+00  0.00000000E+00
              kpt2     0.00000000E+00  0.00000000E+00  0.00000000E+00
                       3.57142857E-02  0.00000000E+00  3.57142857E-02
                       7.14285714E-02  0.00000000E+00  7.14285714E-02
                       1.07142857E-01  0.00000000E+00  1.07142857E-01
                       1.42857143E-01  0.00000000E+00  1.42857143E-01
                       1.78571429E-01  0.00000000E+00  1.78571429E-01
                       2.14285714E-01  0.00000000E+00  2.14285714E-01
                       2.50000000E-01  0.00000000E+00  2.50000000E-01
                       2.85714286E-01  0.00000000E+00  2.85714286E-01
                       3.21428571E-01  0.00000000E+00  3.21428571E-01
                       3.57142857E-01  0.00000000E+00  3.57142857E-01
                       3.92857143E-01  0.00000000E+00  3.92857143E-01
                       4.28571429E-01  0.00000000E+00  4.28571429E-01
                       4.64285714E-01  0.00000000E+00  4.64285714E-01
                       5.00000000E-01  0.00000000E+00  5.00000000E-01
                       5.00000000E-01  3.57142857E-02  5.35714286E-01
                       5.00000000E-01  7.14285714E-02  5.71428571E-01
                       5.00000000E-01  1.07142857E-01  6.07142857E-01
                       5.00000000E-01  1.42857143E-01  6.42857143E-01
                       5.00000000E-01  1.78571429E-01  6.78571429E-01
                       5.00000000E-01  2.14285714E-01  7.14285714E-01
                       5.00000000E-01  2.50000000E-01  7.50000000E-01
                       4.75000000E-01  2.75000000E-01  7.50000000E-01
                       4.50000000E-01  3.00000000E-01  7.50000000E-01
                       4.25000000E-01  3.25000000E-01  7.50000000E-01
                       4.00000000E-01  3.50000000E-01  7.50000000E-01
                       3.75000000E-01  3.75000000E-01  7.50000000E-01
                       3.50000000E-01  3.50000000E-01  7.00000000E-01
                       3.25000000E-01  3.25000000E-01  6.50000000E-01
                       3.00000000E-01  3.00000000E-01  6.00000000E-01
                       2.75000000E-01  2.75000000E-01  5.50000000E-01
                       2.50000000E-01  2.50000000E-01  5.00000000E-01
                       2.25000000E-01  2.25000000E-01  4.50000000E-01
                       2.00000000E-01  2.00000000E-01  4.00000000E-01
                       1.75000000E-01  1.75000000E-01  3.50000000E-01
                       1.50000000E-01  1.50000000E-01  3.00000000E-01
                       1.25000000E-01  1.25000000E-01  2.50000000E-01
                       1.00000000E-01  1.00000000E-01  2.00000000E-01
                       7.50000000E-02  7.50000000E-02  1.50000000E-01
                       5.00000000E-02  5.00000000E-02  1.00000000E-01
                       2.50000000E-02  2.50000000E-02  5.00000000E-02
                       0.00000000E+00  0.00000000E+00  0.00000000E+00
                       4.16666667E-02  4.16666667E-02  4.16666667E-02
                       8.33333333E-02  8.33333333E-02  8.33333333E-02
                       1.25000000E-01  1.25000000E-01  1.25000000E-01
                       1.66666667E-01  1.66666667E-01  1.66666667E-01
                       2.08333333E-01  2.08333333E-01  2.08333333E-01
                       2.50000000E-01  2.50000000E-01  2.50000000E-01
                       2.91666667E-01  2.91666667E-01  2.91666667E-01
                       3.33333333E-01  3.33333333E-01  3.33333333E-01
                       outvar_i_n : Printing only first  50 k-points.
           kptopt1          1
           kptopt2        -11
         kptrlatt        4   -4    4     -4    4    4     -4   -4    4
          kptrlen1     4.10400000E+01
          kptrlen2     3.00000000E+01
P           mkmem1         19
P           mkmem2        101
            natom           2
            nband1          6
            nband2         12
           nbdbuf1          0
           nbdbuf2          4
           ndtset           2
           ndivsm1          0
           ndivsm2          5
            ngfft          30      30      30
             nkpt1         19
             nkpt2        101
            nstep         100
             nsym          48
           ntypat           1
              occ      2.000000  2.000000  2.000000  2.000000  0.000000  0.000000
            prtwf          -1
            rprim      0.0000000000E+00  5.0000000000E-01  5.0000000000E-01
                       5.0000000000E-01  0.0000000000E+00  5.0000000000E-01
                       5.0000000000E-01  5.0000000000E-01  0.0000000000E+00
           shiftk1     0.00000000E+00  0.00000000E+00  0.00000000E+00
           shiftk2     5.00000000E-01  5.00000000E-01  5.00000000E-01
          spgroup         227
           symrel      1  0  0   0  1  0   0  0  1      -1  0  0   0 -1  0   0  0 -1
                       0 -1  1   0 -1  0   1 -1  0       0  1 -1   0  1  0  -1  1  0
                      -1  0  0  -1  0  1  -1  1  0       1  0  0   1  0 -1   1 -1  0
                       0  1 -1   1  0 -1   0  0 -1       0 -1  1  -1  0  1   0  0  1
                      -1  0  0  -1  1  0  -1  0  1       1  0  0   1 -1  0   1  0 -1
                       0 -1  1   1 -1  0   0 -1  0       0  1 -1  -1  1  0   0  1  0
                       1  0  0   0  0  1   0  1  0      -1  0  0   0  0 -1   0 -1  0
                       0  1 -1   0  0 -1   1  0 -1       0 -1  1   0  0  1  -1  0  1
                      -1  0  1  -1  1  0  -1  0  0       1  0 -1   1 -1  0   1  0  0
                       0 -1  0   1 -1  0   0 -1  1       0  1  0  -1  1  0   0  1 -1
                       1  0 -1   0  0 -1   0  1 -1      -1  0  1   0  0  1   0 -1  1
                       0  1  0   0  0  1   1  0  0       0 -1  0   0  0 -1  -1  0  0
                       1  0 -1   0  1 -1   0  0 -1      -1  0  1   0 -1  1   0  0  1
                       0 -1  0   0 -1  1   1 -1  0       0  1  0   0  1 -1  -1  1  0
                      -1  0  1  -1  0  0  -1  1  0       1  0 -1   1  0  0   1 -1  0
                       0  1  0   1  0  0   0  0  1       0 -1  0  -1  0  0   0  0 -1
                       0  0 -1   0  1 -1   1  0 -1       0  0  1   0 -1  1  -1  0  1
                       1 -1  0   0 -1  1   0 -1  0      -1  1  0   0  1 -1   0  1  0
                       0  0  1   1  0  0   0  1  0       0  0 -1  -1  0  0   0 -1  0
                      -1  1  0  -1  0  0  -1  0  1       1 -1  0   1  0  0   1  0 -1
                       0  0  1   0  1  0   1  0  0       0  0 -1   0 -1  0  -1  0  0
                       1 -1  0   0 -1  0   0 -1  1      -1  1  0   0  1  0   0  1 -1
                       0  0 -1   1  0 -1   0  1 -1       0  0  1  -1  0  1   0 -1  1
                      -1  1  0  -1  0  1  -1  0  0       1 -1  0   1  0 -1   1  0  0
            tnons      0.0000000  0.0000000  0.0000000     0.2500000  0.2500000  0.2500000
                       0.0000000  0.0000000  0.0000000     0.2500000  0.2500000  0.2500000
                       0.0000000  0.0000000  0.0000000     0.2500000  0.2500000  0.2500000
                       0.0000000  0.0000000  0.0000000     0.2500000  0.2500000  0.2500000
                       0.0000000  0.0000000  0.0000000     0.2500000  0.2500000  0.2500000
                       0.0000000  0.0000000  0.0000000     0.2500000  0.2500000  0.2500000
                       0.0000000  0.0000000  0.0000000     0.2500000  0.2500000  0.2500000
                       0.0000000  0.0000000  0.0000000     0.2500000  0.2500000  0.2500000
                       0.0000000  0.0000000  0.0000000     0.2500000  0.2500000  0.2500000
                       0.0000000  0.0000000  0.0000000     0.2500000  0.2500000  0.2500000
                       0.0000000  0.0000000  0.0000000     0.2500000  0.2500000  0.2500000
                       0.0000000  0.0000000  0.0000000     0.2500000  0.2500000  0.2500000
                       0.0000000  0.0000000  0.0000000     0.2500000  0.2500000  0.2500000
                       0.0000000  0.0000000  0.0000000     0.2500000  0.2500000  0.2500000
                       0.0000000  0.0000000  0.0000000     0.2500000  0.2500000  0.2500000
                       0.0000000  0.0000000  0.0000000     0.2500000  0.2500000  0.2500000
                       0.0000000  0.0000000  0.0000000     0.2500000  0.2500000  0.2500000
                       0.0000000  0.0000000  0.0000000     0.2500000  0.2500000  0.2500000
                       0.0000000  0.0000000  0.0000000     0.2500000  0.2500000  0.2500000
                       0.0000000  0.0000000  0.0000000     0.2500000  0.2500000  0.2500000
                       0.0000000  0.0000000  0.0000000     0.2500000  0.2500000  0.2500000
                       0.0000000  0.0000000  0.0000000     0.2500000  0.2500000  0.2500000
                       0.0000000  0.0000000  0.0000000     0.2500000  0.2500000  0.2500000
                       0.0000000  0.0000000  0.0000000     0.2500000  0.2500000  0.2500000
           tolvrs1     1.00000000E-12
           tolvrs2     0.00000000E+00
           tolwfr1     0.00000000E+00
           tolwfr2     1.00000000E-20
            typat      1  1
              wtk1       0.02344    0.09375    0.02344    0.09375    0.09375    0.09375
                         0.09375    0.02344    0.09375    0.09375    0.04688    0.04688
                         0.04688    0.01172    0.04688    0.02344    0.03125    0.01563
                         0.00391
              wtk2       1.00000    1.00000    1.00000    1.00000    1.00000    1.00000
                         1.00000    1.00000    1.00000    1.00000    1.00000    1.00000
                         1.00000    1.00000    1.00000    1.00000    1.00000    1.00000
                         1.00000    1.00000    1.00000    1.00000    1.00000    1.00000
                         1.00000    1.00000    1.00000    1.00000    1.00000    1.00000
                         1.00000    1.00000    1.00000    1.00000    1.00000    1.00000
                         1.00000    1.00000    1.00000    1.00000    1.00000    1.00000
                         1.00000    1.00000    1.00000    1.00000    1.00000    1.00000
                         1.00000    1.00000
                       outvars : Printing only first  50 k-points.
           xangst      0.0000000000E+00  0.0000000000E+00  0.0000000000E+00
                       1.3573395400E+00  1.3573395400E+00  1.3573395400E+00
            xcart      0.0000000000E+00  0.0000000000E+00  0.0000000000E+00
                       2.5650000000E+00  2.5650000000E+00  2.5650000000E+00
             xred      0.0000000000E+00  0.0000000000E+00  0.0000000000E+00
                       2.5000000000E-01  2.5000000000E-01  2.5000000000E-01
            znucl       14.00000

================================================================================

 chkinp: Checking input parameters for consistency, jdtset=   1.

 chkinp: Checking input parameters for consistency, jdtset=   2.

================================================================================
== DATASET  1 ==================================================================
-   mpi_nproc: 1, omp_nthreads: -1 (-1 if OMP is not activated)


--- !DatasetInfo
iteration_state: {dtset: 1, }
dimensions: {natom: 2, nkpt: 19, mband: 6, nsppol: 1, nspinor: 1, nspden: 1, mpw: 848, }
cutoff_energies: {ecut:  16.0, pawecutdg:  -1.0, }
electrons: {nelect:   8.00000000E+00, charge:   0.00000000E+00, occopt:   1.00000000E+00, tsmear:   1.00000000E-02, }
meta: {optdriver: 0, ionmov: 0, optcell: 0, iscf: 7, paral_kgb: 0, }
...

 Exchange-correlation functional for the present dataset will be:
  GGA: Perdew-Burke-Ernzerhof functional - ixc=11
 Citation for XC functional:
  J.P.Perdew, K.Burke, M.Ernzerhof, PRL 77, 3865 (1996)

 Real(R)+Recip(G) space primitive vectors, cartesian coordinates (Bohr,Bohr^-1):
 R(1)=  0.0000000  5.1300000  5.1300000  G(1)= -0.0974659  0.0974659  0.0974659
 R(2)=  5.1300000  0.0000000  5.1300000  G(2)=  0.0974659 -0.0974659  0.0974659
 R(3)=  5.1300000  5.1300000  0.0000000  G(3)=  0.0974659  0.0974659 -0.0974659
 Unit cell volume ucvol=  2.7001139E+02 bohr^3
 Angles (23,13,12)=  6.00000000E+01  6.00000000E+01  6.00000000E+01 degrees

 getcut: wavevector=  0.0000  0.0000  0.0000  ngfft=  30  30  30
         ecut(hartree)=     16.000   => boxcut(ratio)=   2.29904

 getcut : COMMENT -
  Note that boxcut > 2.2 ; recall that boxcut=Gcut(box)/Gcut(sphere) = 2
  is sufficient for exact treatment of convolution.
  Such a large boxcut is a waste : you could raise ecut
  e.g. ecut=   21.142268 Hartrees makes boxcut=2


--- Pseudopotential description ------------------------------------------------
- pspini: atom type   1  psp file is /Users/giantomassi/git_repos/abinit/tests/Pspdir/Psdj_nc_sr_04_pbe_std_psp8/Si.psp8
- pspatm: opening atomic psp file    /Users/giantomassi/git_repos/abinit/tests/Pspdir/Psdj_nc_sr_04_pbe_std_psp8/Si.psp8
- Si    ONCVPSP-3.2.3.1  r_core=   1.60303   1.72197   1.91712
- 14.00000   4.00000    170510                znucl, zion, pspdat
    8   11    2    4       600   0.00000      pspcod,pspxc,lmax,lloc,mmax,r2well
    5.99000000000000    4.00000000000000    0.00000000000000   rchrg,fchrg,qchrg
     nproj     2     2     2
     extension_switch     1
  pspatm : epsatm=    9.34321699
         --- l  ekb(1:nproj) -->
             0    5.168965    0.829883
             1    2.571282    0.578307
             2   -2.427311   -0.488097
 pspatm: atomic psp has been read  and splines computed

   1.49491472E+02                                ecore*ucvol(ha*bohr**3)
--------------------------------------------------------------------------------

_setup2: Arith. and geom. avg. npw (full set) are     825.941     825.897

================================================================================

--- !BeginCycle
iteration_state: {dtset: 1, }
solver: {iscf: 7, nstep: 100, nline: 4, wfoptalg: 0, }
tolerances: {tolvrs: 1.00E-12, }
...

     iter   Etot(hartree)      deltaE(h)  residm     vres2
 ETOT  1  -8.4588188866681    -8.459E+00 1.196E-02 6.536E+00
 ETOT  2  -8.4621292529010    -3.310E-03 5.760E-04 1.097E-01
 ETOT  3  -8.4621544050474    -2.515E-05 2.802E-04 1.508E-03
 ETOT  4  -8.4621545885270    -1.835E-07 2.940E-04 6.386E-05
 ETOT  5  -8.4621545951303    -6.603E-09 2.521E-04 6.208E-07
 ETOT  6  -8.4621545951646    -3.435E-11 1.744E-04 4.713E-09
 ETOT  7  -8.4621545951648    -1.634E-13 1.102E-04 3.388E-11
 ETOT  8  -8.4621545951649    -8.704E-14 6.470E-05 1.961E-13

 At SCF step    8       vres2   =  1.96E-13 < tolvrs=  1.00E-12 =>converged.

 Cartesian components of stress tensor (hartree/bohr^3)
  sigma(1 1)= -6.78848098E-05  sigma(3 2)=  0.00000000E+00
  sigma(2 2)= -6.78848098E-05  sigma(3 1)=  0.00000000E+00
  sigma(3 3)= -6.78848098E-05  sigma(2 1)=  0.00000000E+00


--- !ResultsGS
iteration_state: {dtset: 1, }
comment   : Summary of ground state results
lattice_vectors:
- [  0.0000000,   5.1300000,   5.1300000, ]
- [  5.1300000,   0.0000000,   5.1300000, ]
- [  5.1300000,   5.1300000,   0.0000000, ]
lattice_lengths: [   7.25492,    7.25492,    7.25492, ]
lattice_angles: [ 60.000,  60.000,  60.000, ] # degrees, (23, 13, 12)
lattice_volume:   2.7001139E+02
convergence: {deltae: -8.704E-14, res2:  1.961E-13, residm:  6.470E-05, diffor: null, }
etotal    :  -8.46215460E+00
entropy   :   0.00000000E+00
fermie    :   1.60093455E-01
cartesian_stress_tensor: # hartree/bohr^3
- [ -6.78848098E-05,   0.00000000E+00,   0.00000000E+00, ]
- [  0.00000000E+00,  -6.78848098E-05,   0.00000000E+00, ]
- [  0.00000000E+00,   0.00000000E+00,  -6.78848098E-05, ]
pressure_GPa:   1.9972E+00
xred      :
- [  0.0000E+00,   0.0000E+00,   0.0000E+00, Si]
- [  2.5000E-01,   2.5000E-01,   2.5000E-01, Si]
cartesian_forces: # hartree/bohr
- [  1.02516037E-31,   0.00000000E+00,   0.00000000E+00, ]
- [ -1.02516037E-31,   0.00000000E+00,   0.00000000E+00, ]
force_length_stats: {min:   1.02516037E-31, max:   1.02516037E-31, mean:   1.02516037E-31, }
...

 Integrated electronic density in atomic spheres:
 ------------------------------------------------
 Atom  Sphere_radius  Integrated_density
    1        2.00000          1.78613144
    2        2.00000          1.75388341
================================================================================

 ----iterations are completed or convergence reached----

GS calculation converged with prtwf=-1 --> Skipping WFK file output
 reduced coordinates (array xred) for    2 atoms
       0.000000000000      0.000000000000      0.000000000000
       0.250000000000      0.250000000000      0.250000000000
 rms dE/dt=  1.8218E-30; max dE/dt=  2.1036E-30; dE/dt below (all hartree)
    1       0.000000000000     -0.000000000000     -0.000000000000
    2       0.000000000000     -0.000000000000     -0.000000000000

 cartesian coordinates (angstrom) at end:
    1      0.00000000000000     0.00000000000000     0.00000000000000
    2      1.35733954003335     1.35733954003335     1.35733954003335

 cartesian forces (hartree/bohr) at end:
    1      0.00000000000000     0.00000000000000     0.00000000000000
    2     -0.00000000000000     0.00000000000000     0.00000000000000
 frms,max,avg= 5.9187662E-32 1.0251604E-31   0.000E+00  0.000E+00  0.000E+00 h/b

 cartesian forces (eV/Angstrom) at end:
    1      0.00000000000000     0.00000000000000     0.00000000000000
    2     -0.00000000000000     0.00000000000000     0.00000000000000
 frms,max,avg= 3.0435517E-30 5.2715861E-30   0.000E+00  0.000E+00  0.000E+00 e/A
 length scales= 10.260000000000 10.260000000000 10.260000000000 bohr
              =  5.429358160133  5.429358160133  5.429358160133 angstroms
 prteigrs : about to open file tgwr_1o_DS1_EIG
 Fermi (or HOMO) energy (hartree) =   0.16009   Average Vxc (hartree)=  -0.34147
 Eigenvalues (hartree) for nkpt=  19  k points:
 kpt#   1, nband=  6, wtk=  0.02344, kpt= -0.1250 -0.1250  0.0000 (reduced coord)
  -0.26975    0.11095    0.13035    0.13035    0.23380    0.29605
 prteigrs : prtvol=0 or 1, do not print more k-points.


--- !EnergyTerms
iteration_state     : {dtset: 1, }
comment             : Components of total free energy in Hartree
kinetic             :  3.07046796308422E+00
hartree             :  5.47899399427772E-01
xc                  : -3.09252465361281E+00
Ewald energy        : -8.40046478618609E+00
psp_core            :  5.53648753925927E-01
local_psp           : -2.29489342812515E+00
non_local_psp       :  1.15371215632125E+00
total_energy        : -8.46215459516489E+00
total_energy_eV     : -2.30266936971695E+02
band_energy         : -2.09673120632326E-01
...


 Cartesian components of stress tensor (hartree/bohr^3)
  sigma(1 1)= -6.78848098E-05  sigma(3 2)=  0.00000000E+00
  sigma(2 2)= -6.78848098E-05  sigma(3 1)=  0.00000000E+00
  sigma(3 3)= -6.78848098E-05  sigma(2 1)=  0.00000000E+00

-Cartesian components of stress tensor (GPa)         [Pressure=  1.9972E+00 GPa]
- sigma(1 1)= -1.99723972E+00  sigma(3 2)=  0.00000000E+00
- sigma(2 2)= -1.99723972E+00  sigma(3 1)=  0.00000000E+00
- sigma(3 3)= -1.99723972E+00  sigma(2 1)=  0.00000000E+00

================================================================================
== DATASET  2 ==================================================================
-   mpi_nproc: 1, omp_nthreads: -1 (-1 if OMP is not activated)


--- !DatasetInfo
iteration_state: {dtset: 2, }
dimensions: {natom: 2, nkpt: 101, mband: 12, nsppol: 1, nspinor: 1, nspden: 1, mpw: 869, }
cutoff_energies: {ecut:  16.0, pawecutdg:  -1.0, }
electrons: {nelect:   8.00000000E+00, charge:   0.00000000E+00, occopt:   1.00000000E+00, tsmear:   1.00000000E-02, }
meta: {optdriver: 0, ionmov: 0, optcell: 0, iscf: -2, paral_kgb: 0, }
...

 mkfilename : getden/=0, take file _DEN from output of DATASET   1.

 Exchange-correlation functional for the present dataset will be:
  GGA: Perdew-Burke-Ernzerhof functional - ixc=11
 Citation for XC functional:
  J.P.Perdew, K.Burke, M.Ernzerhof, PRL 77, 3865 (1996)

 Real(R)+Recip(G) space primitive vectors, cartesian coordinates (Bohr,Bohr^-1):
 R(1)=  0.0000000  5.1300000  5.1300000  G(1)= -0.0974659  0.0974659  0.0974659
 R(2)=  5.1300000  0.0000000  5.1300000  G(2)=  0.0974659 -0.0974659  0.0974659
 R(3)=  5.1300000  5.1300000  0.0000000  G(3)=  0.0974659  0.0974659 -0.0974659
 Unit cell volume ucvol=  2.7001139E+02 bohr^3
 Angles (23,13,12)=  6.00000000E+01  6.00000000E+01  6.00000000E+01 degrees

 getcut: wavevector=  0.0000  0.0000  0.0000  ngfft=  30  30  30
         ecut(hartree)=     16.000   => boxcut(ratio)=   2.29904

 getcut : COMMENT -
  Note that boxcut > 2.2 ; recall that boxcut=Gcut(box)/Gcut(sphere) = 2
  is sufficient for exact treatment of convolution.
  Such a large boxcut is a waste : you could raise ecut
  e.g. ecut=   21.142268 Hartrees makes boxcut=2

--------------------------------------------------------------------------------


================================================================================
 prteigrs : about to open file tgwr_1o_DS2_EIG
 Non-SCF case, kpt    1 (  0.00000  0.00000  0.00000), residuals and eigenvalues=
  3.37E-21  7.94E-21  1.13E-21  1.83E-21  5.12E-21  4.58E-21  4.72E-21  5.73E-21
  3.08E-15  1.43E-16  1.88E-15  1.47E-21
 -2.7978E-01  1.6009E-01  1.6009E-01  1.6009E-01  2.5401E-01  2.5401E-01
  2.5401E-01  2.8319E-01  4.4414E-01  4.4414E-01  4.5282E-01  5.7381E-01
 Non-SCF case, kpt    2 (  0.03571  0.00000  0.03571), residuals and eigenvalues=
  2.28E-21  8.81E-21  6.78E-21  3.28E-21  2.46E-21  9.86E-21  5.67E-21  2.37E-21
  2.97E-18  9.60E-18  8.49E-19  6.02E-06
 -2.7896E-01  1.5461E-01  1.5664E-01  1.5664E-01  2.5200E-01  2.5847E-01
  2.5847E-01  2.8852E-01  4.3765E-01  4.4505E-01  4.5645E-01  5.7557E-01
 Non-SCF case, kpt    3 (  0.07143  0.00000  0.07143), residuals and eigenvalues=
  2.89E-21  4.64E-21  6.96E-21  3.42E-21  1.88E-21  2.65E-21  3.32E-21  2.37E-21
  1.20E-19  3.05E-18  8.30E-18  1.78E-09
 -2.7650E-01  1.4047E-01  1.4786E-01  1.4786E-01  2.4643E-01  2.7029E-01
  2.7029E-01  3.0168E-01  4.2203E-01  4.4778E-01  4.6687E-01  5.7951E-01
 Non-SCF case, kpt    4 (  0.10714  0.00000  0.10714), residuals and eigenvalues=
  2.38E-21  1.54E-21  3.59E-21  1.32E-21  2.04E-21  7.93E-21  2.44E-21  1.45E-21
  1.59E-20  2.25E-17  6.68E-17  1.40E-09
 -2.7241E-01  1.2146E-01  1.3644E-01  1.3644E-01  2.3839E-01  2.8672E-01
  2.8672E-01  3.1632E-01  4.0515E-01  4.5236E-01  4.8295E-01  5.8660E-01
 Non-SCF case, kpt    5 (  0.14286  0.00000  0.14286), residuals and eigenvalues=
  7.12E-21  9.20E-21  4.25E-21  8.98E-21  3.48E-21  2.85E-21  6.37E-21  9.55E-21
  2.80E-20  4.59E-17  1.07E-15  1.41E-07
 -2.6669E-01  1.0003E-01  1.2422E-01  1.2422E-01  2.2902E-01  3.0590E-01
  3.0590E-01  3.2269E-01  3.9792E-01  4.5872E-01  5.0343E-01  5.9640E-01
 Non-SCF case, kpt    6 (  0.17857  0.00000  0.17857), residuals and eigenvalues=
  4.37E-21  4.56E-21  2.39E-21  3.35E-21  2.74E-21  8.74E-21  8.85E-21  8.63E-21
  1.72E-20  5.95E-18  1.71E-14  2.59E-10
 -2.5937E-01  7.7397E-02  1.1218E-01  1.1218E-01  2.1932E-01  3.1334E-01
  3.2677E-01  3.2677E-01  4.0844E-01  4.6691E-01  5.2717E-01  6.0873E-01
 Non-SCF case, kpt    7 (  0.21429  0.00000  0.21429), residuals and eigenvalues=
  9.06E-21  3.76E-21  6.05E-21  7.92E-21  5.03E-21  6.07E-21  2.43E-21  4.88E-21
  1.63E-19  3.95E-18  5.46E-13  8.93E-10
 -2.5047E-01  5.4160E-02  1.0084E-01  1.0084E-01  2.0997E-01  2.9518E-01
  3.4879E-01  3.4879E-01  4.3020E-01  4.7688E-01  5.5320E-01  6.2311E-01
 Non-SCF case, kpt    8 (  0.25000  0.00000  0.25000), residuals and eigenvalues=
  3.64E-21  5.57E-21  9.58E-21  2.35E-21  8.14E-21  3.53E-21  2.67E-21  1.34E-21
  1.42E-18  2.69E-17  2.01E-11  4.12E-09
 -2.4002E-01  3.0635E-02  9.0486E-02  9.0486E-02  2.0147E-01  2.7518E-01
  3.7161E-01  3.7161E-01  4.5630E-01  4.8866E-01  5.8053E-01  6.3843E-01
 Non-SCF case, kpt    9 (  0.28571  0.00000  0.28571), residuals and eigenvalues=
  5.03E-21  9.30E-21  2.74E-21  3.05E-21  1.57E-21  5.38E-21  2.99E-21  2.97E-21
  4.10E-17  6.73E-17  1.25E-09  1.61E-08
 -2.2804E-01  7.0276E-03  8.1305E-02  8.1305E-02  1.9415E-01  2.5599E-01
  3.9503E-01  3.9503E-01  4.8404E-01  5.0223E-01  6.0796E-01  6.5183E-01
 Non-SCF case, kpt   10 (  0.32143  0.00000  0.32143), residuals and eigenvalues=
  5.24E-21  4.91E-21  9.43E-21  2.15E-21  4.42E-21  2.97E-21  7.55E-21  2.52E-21
  2.00E-17  2.02E-18  8.59E-08  3.60E-10
 -2.1459E-01 -1.6498E-02  7.3407E-02  7.3407E-02  1.8828E-01  2.3858E-01
  4.1894E-01  4.1894E-01  5.1226E-01  5.1760E-01  6.3366E-01  6.5692E-01
 Non-SCF case, kpt   11 (  0.35714  0.00000  0.35714), residuals and eigenvalues=
  4.46E-21  3.57E-21  5.49E-21  2.43E-21  1.44E-21  7.28E-21  6.00E-22  1.99E-21
  1.12E-16  6.00E-17  3.74E-12  4.61E-05
 -1.9972E-01 -3.9785E-02  6.6865E-02  6.6865E-02  1.8404E-01  2.2335E-01
  4.4326E-01  4.4326E-01  5.3474E-01  5.4029E-01  6.4758E-01  6.4838E-01
 Non-SCF case, kpt   12 (  0.39286  0.00000  0.39286), residuals and eigenvalues=
  3.74E-21  4.45E-21  4.12E-21  2.40E-21  5.52E-21  2.96E-21  4.35E-21  4.72E-21
  1.39E-16  1.36E-16  3.60E-11  8.82E-09
 -1.8349E-01 -6.2678E-02  6.1734E-02  6.1734E-02  1.8158E-01  2.1048E-01
  4.6792E-01  4.6792E-01  5.5366E-01  5.6760E-01  6.2754E-01  6.2754E-01
 Non-SCF case, kpt   13 (  0.42857  0.00000  0.42857), residuals and eigenvalues=
  8.08E-21  1.58E-21  1.55E-21  9.63E-21  1.94E-21  3.83E-21  8.50E-21  2.71E-21
  3.66E-17  8.33E-14  5.36E-14  5.23E-14
 -1.6597E-01 -8.5021E-02  5.8047E-02  5.8047E-02  1.8102E-01  2.0001E-01
  4.9266E-01  4.9266E-01  5.7435E-01  5.9370E-01  6.0334E-01  6.0334E-01
 Non-SCF case, kpt   14 (  0.46429  0.00000  0.46429), residuals and eigenvalues=
  5.42E-21  7.88E-21  2.39E-21  7.22E-21  5.15E-21  1.46E-21  9.89E-21  3.70E-21
  2.95E-16  4.02E-17  6.37E-14  1.23E-10
 -1.4726E-01 -1.0666E-01  5.5826E-02  5.5826E-02  1.8249E-01  1.9190E-01
  5.1650E-01  5.1650E-01  5.7909E-01  5.7909E-01  5.9675E-01  6.1803E-01
 Non-SCF case, kpt   15 (  0.50000  0.00000  0.50000), residuals and eigenvalues=
  2.45E-21  3.20E-21  8.35E-21  5.92E-21  6.37E-21  2.87E-21  7.20E-21  7.09E-21
  5.22E-21  4.25E-20  8.41E-10  2.98E-08
 -1.2745E-01 -1.2745E-01  5.5085E-02  5.5085E-02  1.8609E-01  1.8609E-01
  5.3117E-01  5.3117E-01  5.6421E-01  5.6421E-01  6.2087E-01  6.2087E-01
 Non-SCF case, kpt   16 (  0.50000  0.03571  0.53571), residuals and eigenvalues=
  6.58E-21  4.40E-21  3.62E-21  1.74E-21  1.75E-21  2.67E-21  1.98E-21  4.92E-21
  1.25E-19  1.84E-19  7.37E-11  4.71E-11
 -1.2718E-01 -1.2718E-01  5.2658E-02  5.2658E-02  1.9058E-01  1.9058E-01
  5.2307E-01  5.2307E-01  5.5646E-01  5.5646E-01  6.2632E-01  6.2632E-01
 Non-SCF case, kpt   17 (  0.50000  0.07143  0.57143), residuals and eigenvalues=
  8.03E-21  6.55E-21  7.04E-21  2.68E-21  3.95E-21  7.02E-21  4.87E-21  5.87E-21
  5.89E-18  3.66E-18  6.35E-12  1.02E-11
 -1.2640E-01 -1.2640E-01  4.6398E-02  4.6398E-02  2.0307E-01  2.0307E-01
  4.9803E-01  4.9803E-01  5.5065E-01  5.5065E-01  6.2991E-01  6.2991E-01
 Non-SCF case, kpt   18 (  0.50000  0.10714  0.60714), residuals and eigenvalues=
  2.01E-21  9.38E-21  4.55E-21  4.79E-21  6.71E-21  7.11E-21  4.53E-21  7.08E-21
  8.69E-18  3.29E-17  1.54E-13  3.65E-12
 -1.2524E-01 -1.2524E-01  3.8392E-02  3.8392E-02  2.2154E-01  2.2154E-01
  4.6547E-01  4.6547E-01  5.4913E-01  5.4913E-01  6.3239E-01  6.3239E-01
 Non-SCF case, kpt   19 (  0.50000  0.14286  0.64286), residuals and eigenvalues=
  4.43E-21  2.90E-21  2.47E-21  4.46E-21  9.47E-21  5.08E-21  1.48E-21  1.81E-21
  8.01E-19  4.32E-19  3.61E-14  1.41E-13
 -1.2391E-01 -1.2391E-01  3.0494E-02  3.0494E-02  2.4424E-01  2.4424E-01
  4.3131E-01  4.3131E-01  5.4881E-01  5.4881E-01  6.3486E-01  6.3486E-01
 Non-SCF case, kpt   20 (  0.50000  0.17857  0.67857), residuals and eigenvalues=
  1.82E-21  1.99E-21  2.54E-21  1.43E-21  4.49E-21  1.36E-21  2.98E-21  7.61E-21
  7.45E-20  1.02E-19  2.94E-15  4.12E-15
 -1.2265E-01 -1.2265E-01  2.4004E-02  2.4004E-02  2.6990E-01  2.6990E-01
  3.9748E-01  3.9748E-01  5.4883E-01  5.4883E-01  6.3715E-01  6.3715E-01
 Non-SCF case, kpt   21 (  0.50000  0.21429  0.71429), residuals and eigenvalues=
  5.93E-21  1.82E-21  2.52E-21  6.70E-21  1.61E-21  9.39E-21  2.78E-21  2.61E-21
  5.58E-17  1.79E-17  4.97E-13  1.81E-12
 -1.2175E-01 -1.2175E-01  1.9774E-02  1.9774E-02  2.9717E-01  2.9717E-01
  3.6534E-01  3.6534E-01  5.4891E-01  5.4891E-01  6.3881E-01  6.3881E-01
 Non-SCF case, kpt   22 (  0.50000  0.25000  0.75000), residuals and eigenvalues=
  3.47E-21  3.42E-21  8.28E-21  2.81E-21  3.66E-21  5.94E-21  4.51E-21  9.34E-21
  2.53E-17  6.90E-17  1.55E-13  1.81E-13
 -1.2142E-01 -1.2142E-01  1.8306E-02  1.8306E-02  3.1713E-01  3.1713E-01
  3.4374E-01  3.4374E-01  5.4894E-01  5.4894E-01  6.3941E-01  6.3941E-01
 Non-SCF case, kpt   23 (  0.47500  0.27500  0.75000), residuals and eigenvalues=
  8.31E-21  2.69E-21  6.37E-21  5.28E-21  4.89E-21  3.56E-21  3.55E-21  6.31E-21
  6.69E-18  4.85E-16  2.61E-13  1.05E-11
 -1.2904E-01 -1.1435E-01  1.2498E-02  2.6935E-02  2.9160E-01  3.1883E-01
  3.5675E-01  3.5792E-01  5.3179E-01  5.5834E-01  6.2819E-01  6.5716E-01
 Non-SCF case, kpt   24 (  0.45000  0.30000  0.75000), residuals and eigenvalues=
  2.50E-21  2.14E-21  5.97E-21  4.09E-21  2.13E-21  3.46E-21  2.87E-21  1.87E-21
  4.04E-20  2.21E-19  3.01E-14  9.89E-10
 -1.3499E-01 -1.0985E-01  7.8696E-03  3.9341E-02  2.5993E-01  3.1651E-01
  3.7606E-01  3.8287E-01  5.1222E-01  5.4881E-01  6.3444E-01  6.7674E-01
 Non-SCF case, kpt   25 (  0.42500  0.32500  0.75000), residuals and eigenvalues=
  5.76E-21  9.81E-21  2.80E-21  4.61E-21  5.79E-21  2.76E-21  1.49E-21  4.74E-21
  7.71E-21  2.69E-20  1.47E-12  1.68E-07
 -1.3924E-01 -1.0732E-01  4.5089E-03  5.3468E-02  2.3217E-01  3.1406E-01
  3.9748E-01  4.0994E-01  4.9121E-01  5.2555E-01  6.5413E-01  6.9695E-01
 Non-SCF case, kpt   26 (  0.40000  0.35000  0.75000), residuals and eigenvalues=
  8.92E-21  9.06E-21  2.72E-21  5.30E-21  3.08E-21  4.03E-21  1.58E-21  1.76E-21
  5.85E-21  1.27E-20  4.69E-09  4.50E-05
 -1.4180E-01 -1.0611E-01  2.4717E-03  6.5688E-02  2.1197E-01  3.1242E-01
  4.1925E-01  4.3814E-01  4.6979E-01  4.9772E-01  6.7884E-01  7.1686E-01
 Non-SCF case, kpt   27 (  0.37500  0.37500  0.75000), residuals and eigenvalues=
  5.68E-21  3.44E-21  3.10E-21  3.84E-21  1.75E-21  5.31E-21  1.80E-21  6.16E-21
  9.96E-21  3.16E-21  4.32E-07  1.32E-06
 -1.4266E-01 -1.0576E-01  1.7892E-03  7.0797E-02  2.0424E-01  3.1185E-01
  4.3439E-01  4.5477E-01  4.6239E-01  4.7337E-01  7.0173E-01  7.0747E-01
 Non-SCF case, kpt   28 (  0.35000  0.35000  0.70000), residuals and eigenvalues=
  2.48E-21  6.50E-21  3.58E-21  5.40E-21  3.64E-21  4.22E-21  3.19E-21  2.79E-21
  9.77E-21  1.94E-21  1.13E-06  6.91E-05
 -1.5217E-01 -9.6260E-02 -2.2306E-03  7.7398E-02  2.1189E-01  3.4938E-01
  4.1215E-01  4.3248E-01  4.4448E-01  4.5424E-01  7.0070E-01  7.2662E-01
 Non-SCF case, kpt   29 (  0.32500  0.32500  0.65000), residuals and eigenvalues=
  7.90E-21  2.83E-21  3.20E-21  6.88E-21  4.79E-21  6.98E-21  1.25E-21  4.66E-21
  7.08E-21  7.21E-21  8.69E-10  7.52E-08
 -1.6392E-01 -8.5066E-02 -1.5841E-03  8.4927E-02  2.2059E-01  3.8340E-01
  3.9105E-01  4.1668E-01  4.2742E-01  4.3677E-01  6.8182E-01  7.0307E-01
 Non-SCF case, kpt   30 (  0.30000  0.30000  0.60000), residuals and eigenvalues=
  2.13E-21  1.60E-21  3.61E-21  2.13E-21  5.04E-21  3.03E-21  2.69E-21  7.50E-21
  3.30E-21  8.48E-21  6.34E-11  7.56E-09
 -1.7711E-01 -7.2200E-02  3.1384E-03  9.3217E-02  2.3011E-01  3.7124E-01
  3.8273E-01  4.1165E-01  4.2128E-01  4.3794E-01  6.6160E-01  6.8356E-01
 Non-SCF case, kpt   31 (  0.27500  0.27500  0.55000), residuals and eigenvalues=
  1.75E-21  7.14E-21  1.03E-21  9.42E-21  1.65E-21  4.96E-21  9.01E-21  2.24E-21
  2.96E-21  1.45E-19  4.30E-09  2.33E-07
 -1.9091E-01 -5.7684E-02  1.1209E-02  1.0205E-01  2.4009E-01  3.5283E-01
  3.6588E-01  3.9761E-01  4.0807E-01  4.7667E-01  6.4244E-01  6.6692E-01
 Non-SCF case, kpt   32 (  0.25000  0.25000  0.50000), residuals and eigenvalues=
  4.91E-21  1.98E-21  1.70E-21  6.79E-21  2.38E-21  3.81E-21  8.42E-21  5.50E-21
  9.77E-21  1.40E-17  8.59E-09  3.53E-05
 -2.0466E-01 -4.1551E-02  2.1982E-02  1.1117E-01  2.4998E-01  3.3590E-01
  3.4892E-01  3.8577E-01  3.9745E-01  5.1417E-01  6.2419E-01  6.4543E-01
 Non-SCF case, kpt   33 (  0.22500  0.22500  0.45000), residuals and eigenvalues=
  4.21E-21  2.95E-21  6.14E-21  9.72E-21  7.94E-21  6.76E-21  8.14E-21  9.59E-21
  2.35E-21  7.01E-16  9.15E-11  3.90E-09
 -2.1787E-01 -2.3840E-02  3.4934E-02  1.2025E-01  2.5900E-01  3.2048E-01
  3.3310E-01  3.7670E-01  3.8973E-01  5.4295E-01  5.9716E-01  6.1295E-01
 Non-SCF case, kpt   34 (  0.20000  0.20000  0.40000), residuals and eigenvalues=
  3.51E-21  3.97E-21  6.59E-21  4.11E-21  1.12E-21  5.24E-21  4.67E-21  1.89E-21
  6.10E-21  2.73E-15  1.23E-14  4.27E-12
 -2.3020E-01 -4.6058E-03  4.9633E-02  1.2893E-01  2.6620E-01  3.0663E-01
  3.1865E-01  3.7095E-01  3.8527E-01  5.5413E-01  5.5670E-01  5.9793E-01
 Non-SCF case, kpt   35 (  0.17500  0.17500  0.35000), residuals and eigenvalues=
  4.46E-21  5.24E-21  4.02E-21  2.61E-21  3.92E-21  7.42E-21  6.45E-21  7.06E-21
  2.06E-21  8.63E-15  1.86E-14  2.30E-11
 -2.4142E-01  1.6078E-02  6.5684E-02  1.3685E-01  2.7072E-01  2.9436E-01
  3.0559E-01  3.6849E-01  3.8435E-01  5.1754E-01  5.4934E-01  5.8643E-01
 Non-SCF case, kpt   36 (  0.15000  0.15000  0.30000), residuals and eigenvalues=
  2.88E-21  3.07E-21  4.67E-21  1.71E-21  6.73E-21  2.74E-21  2.91E-21  9.24E-21
  1.31E-21  1.02E-18  1.87E-15  8.95E-12
 -2.5137E-01  3.8097E-02  8.2672E-02  1.4370E-01  2.7232E-01  2.8369E-01
  2.9391E-01  3.6764E-01  3.8712E-01  4.8256E-01  5.3624E-01  5.7754E-01
 Non-SCF case, kpt   37 (  0.12500  0.12500  0.25000), residuals and eigenvalues=
  8.66E-21  9.08E-21  3.15E-21  2.50E-21  5.60E-21  4.10E-21  2.11E-21  6.62E-21
  2.70E-21  2.68E-18  2.61E-16  4.19E-10
 -2.5992E-01  6.1277E-02  1.0010E-01  1.4929E-01  2.7158E-01  2.7464E-01
  2.8355E-01  3.6384E-01  3.9355E-01  4.5552E-01  5.1901E-01  5.7138E-01
 Non-SCF case, kpt   38 (  0.10000  0.10000  0.20000), residuals and eigenvalues=
  3.63E-21  1.98E-21  9.66E-21  5.47E-21  2.12E-21  5.00E-21  4.10E-21  9.80E-21
  6.29E-21  3.91E-19  9.59E-17  1.02E-09
 -2.6701E-01  8.5313E-02  1.1732E-01  1.5357E-01  2.6723E-01  2.6943E-01
  2.7445E-01  3.5095E-01  4.0330E-01  4.4129E-01  5.0004E-01  5.6813E-01
 Non-SCF case, kpt   39 (  0.07500  0.07500  0.15000), residuals and eigenvalues=
  6.97E-21  4.25E-21  7.68E-21  2.74E-21  6.27E-21  9.88E-21  2.78E-21  4.41E-21
  2.87E-21  1.34E-19  5.16E-17  5.15E-08
 -2.7257E-01  1.0961E-01  1.3343E-01  1.5663E-01  2.6145E-01  2.6650E-01
  2.6660E-01  3.2933E-01  4.1552E-01  4.3857E-01  4.8175E-01  5.6780E-01
 Non-SCF case, kpt   40 (  0.05000  0.05000  0.10000), residuals and eigenvalues=
  3.54E-21  5.68E-21  5.41E-21  2.07E-21  4.54E-21  6.43E-21  4.47E-21  9.55E-21
  1.61E-18  2.50E-17  4.20E-18  5.36E-05
 -2.7657E-01  1.3289E-01  1.4712E-01  1.5863E-01  2.5732E-01  2.6015E-01
  2.6280E-01  3.0606E-01  4.2859E-01  4.4068E-01  4.6650E-01  5.7027E-01
 Non-SCF case, kpt   41 (  0.02500  0.02500  0.05000), residuals and eigenvalues=
  1.93E-21  3.58E-21  3.28E-21  3.87E-21  2.98E-21  2.23E-21  3.00E-21  4.83E-21
  7.94E-18  2.45E-17  6.54E-20  3.25E-05
 -2.7898E-01  1.5197E-01  1.5663E-01  1.5974E-01  2.5484E-01  2.5567E-01
  2.5761E-01  2.8892E-01  4.3959E-01  4.4316E-01  4.5637E-01  5.7429E-01
 Non-SCF case, kpt   42 (  0.00000  0.00000  0.00000), residuals and eigenvalues=
  3.37E-21  7.94E-21  1.13E-21  1.83E-21  5.12E-21  4.58E-21  4.72E-21  5.73E-21
  3.08E-15  1.43E-16  1.88E-15  1.47E-21
 -2.7978E-01  1.6009E-01  1.6009E-01  1.6009E-01  2.5401E-01  2.5401E-01
  2.5401E-01  2.8319E-01  4.4414E-01  4.4414E-01  4.5282E-01  5.7381E-01
 Non-SCF case, kpt   43 (  0.04167  0.04167  0.04167), residuals and eigenvalues=
  2.18E-21  1.75E-21  1.34E-21  5.13E-21  8.10E-21  4.38E-21  3.55E-21  3.63E-21
  2.73E-18  4.50E-18  7.89E-20  5.72E-05
 -2.7894E-01  1.5063E-01  1.5866E-01  1.5866E-01  2.5590E-01  2.5611E-01
  2.5611E-01  2.8930E-01  4.4126E-01  4.4126E-01  4.5651E-01  5.7112E-01
 Non-SCF case, kpt   44 (  0.08333  0.08333  0.08333), residuals and eigenvalues=
  4.17E-21  1.29E-21  3.00E-21  2.04E-21  3.21E-21  6.44E-21  3.23E-21  9.67E-21
  7.49E-19  1.73E-19  1.60E-19  1.60E-09
 -2.7644E-01  1.2844E-01  1.5479E-01  1.5479E-01  2.5566E-01  2.6181E-01
  2.6181E-01  3.0770E-01  4.3428E-01  4.3428E-01  4.6694E-01  5.6202E-01
 Non-SCF case, kpt   45 (  0.12500  0.12500  0.12500), residuals and eigenvalues=
  7.89E-21  7.83E-21  6.88E-21  6.27E-21  2.49E-21  4.09E-21  1.46E-21  7.76E-21
  4.73E-21  4.43E-21  5.75E-18  8.11E-15
 -2.7228E-01  1.0120E-01  1.4943E-01  1.4943E-01  2.5176E-01  2.6965E-01
  2.6965E-01  3.3289E-01  4.2648E-01  4.2648E-01  4.8168E-01  5.5329E-01
 Non-SCF case, kpt   46 (  0.16667  0.16667  0.16667), residuals and eigenvalues=
  3.23E-21  1.95E-21  2.08E-21  3.30E-21  1.99E-21  8.26E-21  5.80E-21  6.61E-21
  5.20E-21  2.10E-20  3.23E-18  4.97E-14
 -2.6651E-01  7.2422E-02  1.4348E-01  1.4348E-01  2.4622E-01  2.7787E-01
  2.7787E-01  3.6021E-01  4.2086E-01  4.2086E-01  4.9428E-01  5.5201E-01
 Non-SCF case, kpt   47 (  0.20833  0.20833  0.20833), residuals and eigenvalues=
  3.47E-21  6.20E-21  4.78E-21  4.81E-21  3.36E-21  8.19E-21  1.10E-21  9.53E-21
  7.95E-21  5.28E-21  1.11E-19  2.17E-15
 -2.5918E-01  4.3614E-02  1.3757E-01  1.3757E-01  2.4021E-01  2.8467E-01
  2.8467E-01  3.8770E-01  4.1980E-01  4.1980E-01  4.9606E-01  5.6732E-01
 Non-SCF case, kpt   48 (  0.25000  0.25000  0.25000), residuals and eigenvalues=
  7.46E-21  6.71E-21  7.17E-21  3.94E-21  4.23E-21  3.72E-21  1.13E-21  7.15E-21
  2.02E-21  7.65E-21  3.04E-20  1.23E-15
 -2.5039E-01  1.5559E-02  1.3209E-01  1.3209E-01  2.3439E-01  2.8876E-01
  2.8876E-01  4.1414E-01  4.2490E-01  4.2490E-01  4.9089E-01  5.9548E-01
 Non-SCF case, kpt   49 (  0.29167  0.29167  0.29167), residuals and eigenvalues=
  5.57E-21  5.76E-21  2.19E-21  1.59E-21  2.04E-21  6.68E-22  4.57E-21  8.77E-21
  2.65E-21  7.26E-21  7.57E-20  1.95E-11
 -2.4030E-01 -1.1208E-02  1.2726E-01  1.2726E-01  2.2912E-01  2.8988E-01
  2.8988E-01  4.3652E-01  4.3652E-01  4.3696E-01  4.8753E-01  6.2869E-01
 Non-SCF case, kpt   50 (  0.33333  0.33333  0.33333), residuals and eigenvalues=
  7.06E-21  5.72E-21  2.37E-21  1.93E-21  6.28E-21  4.66E-21  5.01E-21  8.29E-21
  4.97E-20  1.73E-20  5.18E-19  2.21E-07
 -2.2918E-01 -3.6184E-02  1.2322E-01  1.2322E-01  2.2463E-01  2.8884E-01
  2.8884E-01  4.4922E-01  4.5390E-01  4.5390E-01  4.9538E-01  6.6052E-01
 Non-SCF case, kpt   51 (  0.37500  0.37500  0.37500), residuals and eigenvalues=
  7.26E-21  7.23E-21  6.55E-21  1.57E-21  3.65E-21  1.33E-21  2.22E-21  6.00E-21
  1.48E-20  7.77E-21  1.36E-18  2.83E-06
 -2.1754E-01 -5.8719E-02  1.2004E-01  1.2004E-01  2.2105E-01  2.8680E-01
  2.8680E-01  4.4986E-01  4.7584E-01  4.7584E-01  5.1619E-01  6.6578E-01
 Non-SCF case, kpt   52 (  0.41667  0.41667  0.41667), residuals and eigenvalues=
  9.02E-21  6.01E-21  6.55E-21  3.30E-21  5.57E-21  3.85E-21  3.64E-21  1.47E-21
  2.77E-17  5.64E-18  3.56E-14  1.50E-09
 -2.0637E-01 -7.7727E-02  1.1776E-01  1.1776E-01  2.1845E-01  2.8472E-01
  2.8472E-01  4.4725E-01  5.0118E-01  5.0118E-01  5.4141E-01  6.3166E-01
 Non-SCF case, kpt   53 (  0.45833  0.45833  0.45833), residuals and eigenvalues=
  4.76E-21  1.97E-21  8.72E-21  6.43E-21  5.11E-21  2.01E-21  6.44E-21  6.61E-21
  1.94E-14  3.38E-15  3.13E-09  5.10E-14
 -1.9759E-01 -9.1234E-02  1.1638E-01  1.1638E-01  2.1688E-01  2.8325E-01
  2.8325E-01  4.4505E-01  5.2847E-01  5.2847E-01  5.6530E-01  5.9878E-01
 Non-SCF case, kpt   54 (  0.50000  0.50000  0.50000), residuals and eigenvalues=
  4.45E-21  1.49E-21  3.64E-21  2.56E-21  2.37E-21  8.29E-21  3.53E-21  4.85E-21
  7.32E-14  7.70E-09  6.93E-15  4.64E-07
 -1.9409E-01 -9.6314E-02  1.1592E-01  1.1592E-01  2.1635E-01  2.8273E-01
  2.8273E-01  4.4424E-01  5.4828E-01  5.4828E-01  5.7705E-01  5.7739E-01
 Non-SCF case, kpt   55 (  0.51389  0.47222  0.51389), residuals and eigenvalues=
  4.82E-21  1.47E-21  1.56E-21  8.88E-21  9.34E-21  2.25E-21  6.91E-21  4.94E-21
  3.44E-13  1.42E-11  1.59E-07  5.69E-06
 -1.9334E-01 -9.5921E-02  1.0914E-01  1.1455E-01  2.2251E-01  2.8161E-01
  2.8562E-01  4.4751E-01  5.2959E-01  5.4123E-01  5.7459E-01  5.8507E-01
 Non-SCF case, kpt   56 (  0.52778  0.44444  0.52778), residuals and eigenvalues=
  5.86E-21  1.42E-21  3.30E-21  6.55E-21  5.77E-21  5.02E-21  3.45E-21  6.26E-21
  4.25E-17  3.42E-15  3.60E-11  6.68E-08
 -1.9111E-01 -9.4798E-02  9.2834E-02  1.1072E-01  2.3507E-01  2.8096E-01
  2.9397E-01  4.5479E-01  5.0352E-01  5.2861E-01  5.6972E-01  6.0037E-01
 Non-SCF case, kpt   57 (  0.54167  0.41667  0.54167), residuals and eigenvalues=
  1.78E-21  4.49E-21  3.84E-21  3.24E-21  1.63E-21  2.62E-21  4.24E-21  5.58E-21
  1.36E-19  2.06E-18  1.11E-13  1.81E-07
 -1.8741E-01 -9.3123E-02  7.2709E-02  1.0516E-01  2.4160E-01  2.8940E-01
  3.0706E-01  4.5409E-01  4.8726E-01  5.1569E-01  5.6803E-01  6.1766E-01
 Non-SCF case, kpt   58 (  0.55556  0.38889  0.55556), residuals and eigenvalues=
  2.18E-21  3.50E-21  9.55E-21  6.99E-21  1.42E-21  1.79E-21  2.49E-21  5.47E-21
  1.82E-18  3.03E-17  2.32E-13  1.41E-06
 -1.8228E-01 -9.1260E-02  5.2024E-02  9.8680E-02  2.3801E-01  3.0970E-01
  3.2403E-01  4.3403E-01  4.8752E-01  5.0353E-01  5.7521E-01  6.3563E-01
 Non-SCF case, kpt   59 (  0.56944  0.36111  0.56944), residuals and eigenvalues=
  2.44E-21  1.29E-21  5.22E-21  2.72E-21  6.59E-21  4.25E-21  2.67E-21  5.98E-21
  1.98E-19  9.41E-19  6.41E-13  3.37E-06
 -1.7576E-01 -8.9860E-02  3.2755E-02  9.1964E-02  2.3049E-01  3.3535E-01
  3.4412E-01  4.0902E-01  4.8698E-01  4.9252E-01  5.9423E-01  6.5365E-01
 Non-SCF case, kpt   60 (  0.58333  0.33333  0.58333), residuals and eigenvalues=
  4.54E-21  2.01E-21  2.93E-21  6.84E-21  4.00E-21  3.58E-21  2.61E-21  2.91E-21
  2.18E-19  1.23E-20  1.46E-11  2.92E-06
 -1.6797E-01 -8.9975E-02  1.6665E-02  8.5518E-02  2.2244E-01  3.6079E-01
  3.6666E-01  3.8663E-01  4.8219E-01  4.8287E-01  6.2281E-01  6.7116E-01
 Non-SCF case, kpt   61 (  0.59722  0.30556  0.59722), residuals and eigenvalues=
  1.50E-21  2.90E-21  2.90E-21  1.42E-21  8.16E-21  2.91E-21  6.95E-21  8.29E-21
  2.07E-20  3.92E-20  1.71E-08  1.47E-04
 -1.5915E-01 -9.2888E-02  5.5808E-03  7.9695E-02  2.1508E-01  3.5505E-01
  3.9091E-01  3.9768E-01  4.7498E-01  4.7516E-01  6.5741E-01  6.8789E-01
 Non-SCF case, kpt   62 (  0.61111  0.27778  0.61111), residuals and eigenvalues=
  8.83E-21  4.59E-21  8.13E-21  2.52E-21  1.98E-21  2.06E-21  1.96E-21  3.28E-21
  4.68E-21  6.96E-21  2.58E-05  3.23E-04
 -1.4996E-01 -9.9024E-02  7.2585E-04  7.4734E-02  2.0893E-01  3.3314E-01
  4.1532E-01  4.2697E-01  4.6738E-01  4.7010E-01  6.9373E-01  7.0555E-01
 Non-SCF case, kpt   63 (  0.62500  0.25000  0.62500), residuals and eigenvalues=
  7.84E-21  5.38E-21  1.83E-21  3.76E-21  3.80E-21  9.50E-21  5.46E-21  7.07E-21
  1.50E-21  7.32E-21  3.62E-07  9.81E-06
 -1.4266E-01 -1.0576E-01  1.7892E-03  7.0797E-02  2.0424E-01  3.1185E-01
  4.3439E-01  4.5477E-01  4.6239E-01  4.7337E-01  7.0174E-01  7.0751E-01
 Non-SCF case, kpt   64 (  0.60000  0.25000  0.65000), residuals and eigenvalues=
  4.44E-21  1.70E-21  1.09E-21  3.54E-21  7.81E-21  9.79E-21  3.31E-21  2.00E-21
  8.81E-21  3.75E-20  5.71E-08  1.53E-05
 -1.4180E-01 -1.0611E-01  2.4717E-03  6.5688E-02  2.1197E-01  3.1242E-01
  4.1925E-01  4.3814E-01  4.6979E-01  4.9772E-01  6.7884E-01  7.1650E-01
 Non-SCF case, kpt   65 (  0.57500  0.25000  0.67500), residuals and eigenvalues=
  7.55E-21  2.30E-21  7.38E-21  7.90E-21  4.81E-21  4.35E-21  3.32E-21  2.32E-21
  2.81E-20  4.01E-19  2.49E-10  1.02E-06
 -1.3924E-01 -1.0732E-01  4.5089E-03  5.3468E-02  2.3217E-01  3.1406E-01
  3.9748E-01  4.0994E-01  4.9121E-01  5.2555E-01  6.5413E-01  6.9695E-01
 Non-SCF case, kpt   66 (  0.55000  0.25000  0.70000), residuals and eigenvalues=
  3.32E-21  2.00E-21  3.24E-21  2.68E-21  4.80E-21  2.18E-21  6.47E-21  8.03E-21
  1.88E-17  1.24E-15  2.29E-12  5.94E-09
 -1.3499E-01 -1.0985E-01  7.8696E-03  3.9341E-02  2.5993E-01  3.1651E-01
  3.7606E-01  3.8287E-01  5.1222E-01  5.4881E-01  6.3444E-01  6.7674E-01
 Non-SCF case, kpt   67 (  0.52500  0.25000  0.72500), residuals and eigenvalues=
  3.17E-21  2.34E-21  4.77E-21  6.58E-21  1.92E-21  9.77E-21  3.69E-21  2.17E-21
  9.30E-18  2.14E-17  1.42E-13  7.63E-12
 -1.2904E-01 -1.1435E-01  1.2498E-02  2.6935E-02  2.9160E-01  3.1883E-01
  3.5675E-01  3.5792E-01  5.3179E-01  5.5834E-01  6.2819E-01  6.5716E-01
 Non-SCF case, kpt   68 (  0.50000  0.25000  0.75000), residuals and eigenvalues=
  3.47E-21  3.42E-21  8.28E-21  2.81E-21  3.66E-21  5.94E-21  4.51E-21  9.34E-21
  2.53E-17  6.90E-17  1.55E-13  1.81E-13
 -1.2142E-01 -1.2142E-01  1.8306E-02  1.8306E-02  3.1713E-01  3.1713E-01
  3.4374E-01  3.4374E-01  5.4894E-01  5.4894E-01  6.3941E-01  6.3941E-01
 Non-SCF case, kpt   69 (  0.50000  0.27500  0.72500), residuals and eigenvalues=
  5.92E-21  3.07E-21  6.71E-21  3.84E-21  3.65E-21  1.66E-21  3.91E-21  1.44E-21
  5.86E-17  1.07E-14  2.22E-12  6.69E-09
 -1.3345E-01 -1.0988E-01  1.0958E-02  2.8562E-02  3.0607E-01  3.1768E-01
  3.4378E-01  3.5758E-01  5.2179E-01  5.6495E-01  6.2133E-01  6.6689E-01
 Non-SCF case, kpt   70 (  0.50000  0.30000  0.70000), residuals and eigenvalues=
  5.62E-21  2.56E-21  2.90E-21  3.66E-21  4.55E-21  3.42E-21  7.21E-21  4.51E-21
  6.06E-19  9.80E-14  2.43E-13  2.22E-05
 -1.4515E-01 -1.0002E-01  7.8376E-03  4.0702E-02  2.9508E-01  3.0663E-01
  3.5863E-01  3.7466E-01  4.8739E-01  5.7094E-01  6.1006E-01  6.9051E-01
 Non-SCF case, kpt   71 (  0.50000  0.32500  0.67500), residuals and eigenvalues=
  7.83E-21  8.76E-21  3.53E-21  6.59E-21  1.44E-21  1.57E-21  4.65E-21  2.47E-21
  6.72E-21  8.58E-17  1.01E-14  5.69E-11
 -1.5604E-01 -9.3147E-02  1.0321E-02  5.3916E-02  2.8597E-01  2.9460E-01
  3.7759E-01  3.9320E-01  4.5030E-01  5.6991E-01  6.0205E-01  6.6642E-01
 Non-SCF case, kpt   72 (  0.50000  0.35000  0.65000), residuals and eigenvalues=
  6.29E-21  5.87E-21  1.66E-21  2.63E-21  4.72E-21  6.39E-21  3.71E-21  9.42E-21
  2.95E-21  4.35E-18  1.72E-16  5.22E-14
 -1.6581E-01 -8.9881E-02  1.9000E-02  6.7465E-02  2.7925E-01  2.8326E-01
  3.9879E-01  4.1252E-01  4.1312E-01  5.6277E-01  5.9561E-01  6.3779E-01
 Non-SCF case, kpt   73 (  0.50000  0.37500  0.62500), residuals and eigenvalues=
  1.86E-21  4.57E-21  1.79E-21  5.58E-21  3.22E-21  3.42E-21  8.43E-21  6.39E-21
  9.48E-21  2.07E-17  5.42E-15  3.09E-14
 -1.7428E-01 -8.9578E-02  3.3115E-02  8.0592E-02  2.7266E-01  2.7521E-01
  3.7730E-01  4.2188E-01  4.3178E-01  5.4929E-01  5.9017E-01  6.1626E-01
 Non-SCF case, kpt   74 (  0.50000  0.40000  0.60000), residuals and eigenvalues=
  2.94E-21  2.46E-21  4.42E-21  3.39E-21  5.32E-21  1.76E-21  7.46E-21  1.90E-21
  6.71E-21  3.71E-17  5.55E-15  1.72E-13
 -1.8133E-01 -9.0956E-02  5.1112E-02  9.2511E-02  2.6226E-01  2.7395E-01
  3.4445E-01  4.4664E-01  4.4895E-01  5.3270E-01  5.8562E-01  6.0273E-01
 Non-SCF case, kpt   75 (  0.50000  0.42500  0.57500), residuals and eigenvalues=
  2.37E-21  6.11E-22  7.00E-21  2.82E-21  9.86E-21  2.92E-21  7.75E-21  5.01E-21
  6.37E-21  8.23E-18  6.16E-14  1.84E-12
 -1.8688E-01 -9.2900E-02  7.1292E-02  1.0247E-01  2.5086E-01  2.7525E-01
  3.1666E-01  4.5862E-01  4.7294E-01  5.2250E-01  5.8200E-01  5.9418E-01
 Non-SCF case, kpt   76 (  0.50000  0.45000  0.55000), residuals and eigenvalues=
  8.39E-21  6.51E-21  4.93E-21  4.08E-21  9.40E-21  3.96E-21  9.58E-21  5.11E-21
  7.00E-18  3.39E-16  8.18E-09  2.80E-08
 -1.9087E-01 -9.4683E-02  9.1638E-02  1.0988E-01  2.3709E-01  2.7826E-01
  2.9677E-01  4.5556E-01  5.0055E-01  5.2736E-01  5.7935E-01  5.8765E-01
 Non-SCF case, kpt   77 (  0.50000  0.47500  0.52500), residuals and eigenvalues=
  2.35E-21  3.14E-21  2.16E-21  2.07E-21  1.16E-21  1.85E-21  3.72E-21  7.42E-21
  8.87E-13  3.89E-11  9.09E-07  5.03E-07
 -1.9328E-01 -9.5890E-02  1.0867E-01  1.1441E-01  2.2297E-01  2.8139E-01
  2.8598E-01  4.4776E-01  5.2866E-01  5.4044E-01  5.7774E-01  5.8127E-01
 Non-SCF case, kpt   78 (  0.50000  0.50000  0.50000), residuals and eigenvalues=
  4.45E-21  1.49E-21  3.64E-21  2.56E-21  2.37E-21  8.29E-21  3.53E-21  4.85E-21
  7.32E-14  7.70E-09  6.93E-15  4.64E-07
 -1.9409E-01 -9.6314E-02  1.1592E-01  1.1592E-01  2.1635E-01  2.8273E-01
  2.8273E-01  4.4424E-01  5.4828E-01  5.4828E-01  5.7705E-01  5.7739E-01
 Non-SCF case, kpt   79 (  0.48611  0.48611  0.52778), residuals and eigenvalues=
  5.31E-21  6.91E-21  7.42E-21  3.32E-21  2.20E-21  8.07E-21  1.34E-21  5.58E-21
  1.32E-13  2.08E-12  2.18E-07  2.95E-06
 -1.9334E-01 -9.5921E-02  1.0914E-01  1.1455E-01  2.2251E-01  2.8161E-01
  2.8562E-01  4.4751E-01  5.2959E-01  5.4123E-01  5.7459E-01  5.8505E-01
 Non-SCF case, kpt   80 (  0.47222  0.47222  0.55556), residuals and eigenvalues=
  3.51E-21  1.50E-21  4.64E-21  9.81E-21  8.15E-21  4.92E-21  8.03E-21  7.74E-21
  1.02E-17  6.16E-16  2.31E-11  5.27E-07
 -1.9111E-01 -9.4798E-02  9.2834E-02  1.1072E-01  2.3507E-01  2.8096E-01
  2.9397E-01  4.5479E-01  5.0352E-01  5.2861E-01  5.6972E-01  6.0037E-01
 Non-SCF case, kpt   81 (  0.45833  0.45833  0.58333), residuals and eigenvalues=
  7.98E-21  1.96E-21  2.80E-21  8.39E-21  1.80E-21  8.75E-21  7.31E-21  6.34E-21
  7.87E-19  3.06E-17  9.33E-12  1.05E-05
 -1.8741E-01 -9.3123E-02  7.2709E-02  1.0516E-01  2.4160E-01  2.8940E-01
  3.0706E-01  4.5409E-01  4.8726E-01  5.1569E-01  5.6803E-01  6.1769E-01
 Non-SCF case, kpt   82 (  0.44444  0.44444  0.61111), residuals and eigenvalues=
  4.28E-21  5.05E-21  2.10E-21  4.15E-21  5.00E-21  4.53E-21  7.04E-21  6.63E-21
  6.85E-19  6.82E-17  4.00E-12  4.30E-07
 -1.8228E-01 -9.1260E-02  5.2024E-02  9.8680E-02  2.3801E-01  3.0970E-01
  3.2403E-01  4.3403E-01  4.8752E-01  5.0353E-01  5.7521E-01  6.3563E-01
 Non-SCF case, kpt   83 (  0.43056  0.43056  0.63889), residuals and eigenvalues=
  4.84E-21  4.62E-21  4.30E-21  2.57E-21  7.21E-21  4.97E-21  1.39E-21  5.44E-21
  8.84E-20  1.17E-18  4.16E-12  2.46E-06
 -1.7576E-01 -8.9860E-02  3.2755E-02  9.1964E-02  2.3049E-01  3.3535E-01
  3.4412E-01  4.0902E-01  4.8698E-01  4.9252E-01  5.9423E-01  6.5366E-01
 Non-SCF case, kpt   84 (  0.41667  0.41667  0.66667), residuals and eigenvalues=
  4.29E-21  4.48E-21  4.92E-21  1.66E-21  2.88E-21  4.66E-21  2.96E-21  3.12E-21
  2.36E-18  2.25E-18  2.22E-11  1.41E-06
 -1.6797E-01 -8.9975E-02  1.6665E-02  8.5518E-02  2.2244E-01  3.6079E-01
  3.6666E-01  3.8663E-01  4.8219E-01  4.8287E-01  6.2281E-01  6.7115E-01
 Non-SCF case, kpt   85 (  0.40278  0.40278  0.69444), residuals and eigenvalues=
  9.11E-21  1.88E-21  4.96E-21  7.71E-21  9.72E-21  4.59E-21  5.59E-21  2.26E-21
  2.04E-19  6.42E-19  1.89E-09  5.12E-06
 -1.5915E-01 -9.2888E-02  5.5808E-03  7.9695E-02  2.1508E-01  3.5505E-01
  3.9091E-01  3.9768E-01  4.7498E-01  4.7516E-01  6.5741E-01  6.8750E-01
 Non-SCF case, kpt   86 (  0.38889  0.38889  0.72222), residuals and eigenvalues=
  4.80E-21  4.33E-21  7.58E-21  9.48E-21  8.89E-21  5.88E-21  8.39E-21  2.47E-21
  8.09E-21  5.68E-21  1.53E-06  7.40E-05
 -1.4996E-01 -9.9024E-02  7.2585E-04  7.4734E-02  2.0893E-01  3.3314E-01
  4.1532E-01  4.2697E-01  4.6738E-01  4.7010E-01  6.9350E-01  7.0248E-01
 Non-SCF case, kpt   87 (  0.37500  0.37500  0.75000), residuals and eigenvalues=
  5.68E-21  3.44E-21  3.10E-21  3.84E-21  1.75E-21  5.31E-21  1.80E-21  6.16E-21
  9.96E-21  3.16E-21  4.32E-07  1.32E-06
 -1.4266E-01 -1.0576E-01  1.7892E-03  7.0797E-02  2.0424E-01  3.1185E-01
  4.3439E-01  4.5477E-01  4.6239E-01  4.7337E-01  7.0173E-01  7.0747E-01
 Non-SCF case, kpt   88 (  0.40278  0.36111  0.73611), residuals and eigenvalues=
  5.43E-21  6.42E-21  1.18E-21  3.43E-21  2.46E-21  5.91E-21  8.45E-21  2.16E-21
  5.78E-21  7.79E-21  4.32E-08  2.21E-06
 -1.4520E-01 -1.0291E-01  1.0582E-03  6.9034E-02  2.1181E-01  3.2267E-01
  4.1327E-01  4.4018E-01  4.5774E-01  4.9086E-01  6.8503E-01  7.1062E-01
 Non-SCF case, kpt   89 (  0.43056  0.34722  0.72222), residuals and eigenvalues=
  3.12E-21  3.13E-21  6.65E-21  8.52E-21  6.26E-21  4.75E-21  7.68E-21  4.61E-21
  5.24E-21  4.36E-19  1.01E-10  3.19E-08
 -1.4770E-01 -9.9911E-02  2.3934E-03  6.2182E-02  2.2892E-01  3.3401E-01
  3.8175E-01  4.2026E-01  4.6259E-01  5.1627E-01  6.6083E-01  6.9696E-01
 Non-SCF case, kpt   90 (  0.45833  0.33333  0.70833), residuals and eigenvalues=
  5.88E-21  4.03E-21  2.40E-21  3.63E-21  3.25E-21  2.99E-21  4.59E-21  5.04E-21
  5.67E-21  2.63E-17  1.37E-11  1.11E-09
 -1.4959E-01 -9.7565E-02  5.2292E-03  5.3914E-02  2.5246E-01  3.3741E-01
  3.5810E-01  4.0233E-01  4.6654E-01  5.4254E-01  6.3462E-01  6.8698E-01
 Non-SCF case, kpt   91 (  0.48611  0.31944  0.69444), residuals and eigenvalues=
  7.56E-21  5.76E-21  6.65E-21  3.95E-21  7.97E-21  4.50E-21  9.63E-22  2.25E-21
  5.22E-21  9.77E-17  2.76E-14  2.12E-07
 -1.5059E-01 -9.6303E-02  7.8801E-03  4.8072E-02  2.7967E-01  3.1145E-01
  3.6493E-01  3.8720E-01  4.6870E-01  5.6607E-01  6.1095E-01  6.8188E-01
 Non-SCF case, kpt   92 (  0.51389  0.30556  0.68056), residuals and eigenvalues=
  5.42E-21  3.38E-21  2.65E-21  2.64E-21  9.72E-21  7.41E-21  2.89E-21  1.49E-21
  8.69E-21  5.11E-17  3.18E-14  8.37E-09
 -1.5059E-01 -9.6303E-02  7.8801E-03  4.8072E-02  2.7967E-01  3.1145E-01
  3.6493E-01  3.8720E-01  4.6870E-01  5.6607E-01  6.1095E-01  6.8188E-01
 Non-SCF case, kpt   93 (  0.54167  0.29167  0.66667), residuals and eigenvalues=
  5.54E-21  5.89E-21  4.05E-21  9.74E-21  2.60E-21  1.44E-21  2.61E-21  4.47E-21
  2.52E-21  6.64E-18  7.61E-13  8.12E-09
 -1.4959E-01 -9.7565E-02  5.2292E-03  5.3914E-02  2.5246E-01  3.3741E-01
  3.5810E-01  4.0233E-01  4.6654E-01  5.4254E-01  6.3462E-01  6.8698E-01
 Non-SCF case, kpt   94 (  0.56944  0.27778  0.65278), residuals and eigenvalues=
  2.35E-21  7.50E-21  4.27E-21  3.38E-21  8.29E-21  3.86E-21  3.09E-21  1.40E-21
  7.06E-21  3.28E-19  3.60E-11  2.82E-07
 -1.4770E-01 -9.9911E-02  2.3934E-03  6.2182E-02  2.2892E-01  3.3401E-01
  3.8175E-01  4.2026E-01  4.6259E-01  5.1627E-01  6.6083E-01  6.9696E-01
 Non-SCF case, kpt   95 (  0.59722  0.26389  0.63889), residuals and eigenvalues=
  9.93E-21  2.97E-21  5.13E-21  2.42E-21  2.78E-21  9.12E-21  2.35E-21  3.92E-21
  7.40E-21  3.29E-20  1.11E-08  2.20E-05
 -1.4520E-01 -1.0291E-01  1.0582E-03  6.9034E-02  2.1181E-01  3.2267E-01
  4.1327E-01  4.4018E-01  4.5774E-01  4.9086E-01  6.8503E-01  7.1068E-01
 Non-SCF case, kpt   96 (  0.62500  0.25000  0.62500), residuals and eigenvalues=
  7.84E-21  5.38E-21  1.83E-21  3.76E-21  3.80E-21  9.50E-21  5.46E-21  7.07E-21
  1.50E-21  7.32E-21  3.62E-07  9.81E-06
 -1.4266E-01 -1.0576E-01  1.7892E-03  7.0797E-02  2.0424E-01  3.1185E-01
  4.3439E-01  4.5477E-01  4.6239E-01  4.7337E-01  7.0174E-01  7.0751E-01
 Non-SCF case, kpt   97 (  0.60000  0.20000  0.60000), residuals and eigenvalues=
  2.02E-21  2.00E-21  1.74E-21  3.94E-21  5.98E-21  5.02E-21  4.35E-21  9.11E-21
  8.88E-21  5.24E-21  3.26E-06  8.53E-07
 -1.3579E-01 -1.1355E-01  1.0520E-02  6.5248E-02  1.9782E-01  2.7593E-01
  4.5751E-01  4.7901E-01  4.8064E-01  4.9382E-01  6.8716E-01  6.8828E-01
 Non-SCF case, kpt   98 (  0.57500  0.15000  0.57500), residuals and eigenvalues=
  3.66E-21  8.41E-21  2.22E-21  6.05E-21  6.30E-21  4.67E-21  5.99E-21  4.20E-21
  3.53E-21  4.30E-21  2.18E-05  5.76E-05
 -1.3142E-01 -1.1963E-01  2.3075E-02  6.0847E-02  1.9273E-01  2.4293E-01
  4.8098E-01  4.9846E-01  5.0438E-01  5.1509E-01  6.6872E-01  6.7173E-01
 Non-SCF case, kpt   99 (  0.55000  0.10000  0.55000), residuals and eigenvalues=
  2.30E-21  8.10E-21  3.23E-21  4.46E-21  4.37E-21  5.90E-21  7.45E-21  2.90E-21
  3.02E-20  1.30E-19  1.41E-05  2.91E-06
 -1.2897E-01 -1.2397E-01  3.7398E-02  5.7660E-02  1.8906E-01  2.1459E-01
  5.0371E-01  5.1451E-01  5.2990E-01  5.3629E-01  6.4812E-01  6.5050E-01
 Non-SCF case, kpt  100 (  0.52500  0.05000  0.52500), residuals and eigenvalues=
  3.58E-21  8.89E-21  4.38E-21  4.37E-21  5.09E-21  6.43E-21  3.97E-21  2.17E-21
  1.33E-17  1.43E-18  9.96E-08  8.21E-07
 -1.2779E-01 -1.2658E-01  4.9851E-02  5.5730E-02  1.8683E-01  1.9399E-01
  5.2278E-01  5.2652E-01  5.5294E-01  5.5511E-01  6.2973E-01  6.2977E-01
 Non-SCF case, kpt  101 (  0.50000  0.00000  0.50000), residuals and eigenvalues=
  2.45E-21  3.20E-21  8.35E-21  5.92E-21  6.37E-21  2.87E-21  7.20E-21  7.09E-21
  5.22E-21  4.25E-20  8.41E-10  2.98E-08
 -1.2745E-01 -1.2745E-01  5.5085E-02  5.5085E-02  1.8609E-01  1.8609E-01
  5.3117E-01  5.3117E-01  5.6421E-01  5.6421E-01  6.2087E-01  6.2087E-01


--- !ResultsGS
iteration_state: {dtset: 2, }
comment   : Summary of ground state results
lattice_vectors:
- [  0.0000000,   5.1300000,   5.1300000, ]
- [  5.1300000,   0.0000000,   5.1300000, ]
- [  5.1300000,   5.1300000,   0.0000000, ]
lattice_lengths: [   7.25492,    7.25492,    7.25492, ]
lattice_angles: [ 60.000,  60.000,  60.000, ] # degrees, (23, 13, 12)
lattice_volume:   2.7001139E+02
convergence: {deltae:  0.000E+00, res2:  0.000E+00, residm:  9.927E-21, diffor:  0.000E+00, }
etotal    :  -8.46215460E+00
entropy   :   0.00000000E+00
fermie    :   1.60093455E-01
cartesian_stress_tensor: null
pressure_GPa: null
xred      :
- [  0.0000E+00,   0.0000E+00,   0.0000E+00, Si]
- [  2.5000E-01,   2.5000E-01,   2.5000E-01, Si]
cartesian_forces: null
force_length_stats: {min: null, max: null, mean: null, }
...

 Integrated electronic density in atomic spheres:
 ------------------------------------------------
 Atom  Sphere_radius  Integrated_density
    1        2.00000          1.78613144
    2        2.00000          1.75388341
================================================================================

 ----iterations are completed or convergence reached----

GS calculation converged with prtwf=-1 --> Skipping WFK file output
 reduced coordinates (array xred) for    2 atoms
       0.000000000000      0.000000000000      0.000000000000
       0.250000000000      0.250000000000      0.250000000000

 cartesian coordinates (angstrom) at end:
    1      0.00000000000000     0.00000000000000     0.00000000000000
    2      1.35733954003335     1.35733954003335     1.35733954003335
 length scales= 10.260000000000 10.260000000000 10.260000000000 bohr
              =  5.429358160133  5.429358160133  5.429358160133 angstroms
 prteigrs : about to open file tgwr_1o_DS2_EIG
 Eigenvalues (hartree) for nkpt= 101  k points:
 kpt#   1, nband= 12, wtk=  1.00000, kpt=  0.0000  0.0000  0.0000 (reduced coord)
  -0.27978    0.16009    0.16009    0.16009    0.25401    0.25401    0.25401    0.28319
   0.44414    0.44414    0.45282    0.57381
 kpt#   2, nband= 12, wtk=  1.00000, kpt=  0.0357  0.0000  0.0357 (reduced coord)
  -0.27896    0.15461    0.15664    0.15664    0.25200    0.25847    0.25847    0.28852
   0.43765    0.44505    0.45645    0.57557
 kpt#   3, nband= 12, wtk=  1.00000, kpt=  0.0714  0.0000  0.0714 (reduced coord)
  -0.27650    0.14047    0.14786    0.14786    0.24643    0.27029    0.27029    0.30168
   0.42203    0.44778    0.46687    0.57951
 kpt#   4, nband= 12, wtk=  1.00000, kpt=  0.1071  0.0000  0.1071 (reduced coord)
  -0.27241    0.12146    0.13644    0.13644    0.23839    0.28672    0.28672    0.31632
   0.40515    0.45236    0.48295    0.58660
 kpt#   5, nband= 12, wtk=  1.00000, kpt=  0.1429  0.0000  0.1429 (reduced coord)
  -0.26669    0.10003    0.12422    0.12422    0.22902    0.30590    0.30590    0.32269
   0.39792    0.45872    0.50343    0.59640
 kpt#   6, nband= 12, wtk=  1.00000, kpt=  0.1786  0.0000  0.1786 (reduced coord)
  -0.25937    0.07740    0.11218    0.11218    0.21932    0.31334    0.32677    0.32677
   0.40844    0.46691    0.52717    0.60873
 kpt#   7, nband= 12, wtk=  1.00000, kpt=  0.2143  0.0000  0.2143 (reduced coord)
  -0.25047    0.05416    0.10084    0.10084    0.20997    0.29518    0.34879    0.34879
   0.43020    0.47688    0.55320    0.62311
 kpt#   8, nband= 12, wtk=  1.00000, kpt=  0.2500  0.0000  0.2500 (reduced coord)
  -0.24002    0.03064    0.09049    0.09049    0.20147    0.27518    0.37161    0.37161
   0.45630    0.48866    0.58053    0.63843
 kpt#   9, nband= 12, wtk=  1.00000, kpt=  0.2857  0.0000  0.2857 (reduced coord)
  -0.22804    0.00703    0.08131    0.08131    0.19415    0.25599    0.39503    0.39503
   0.48404    0.50223    0.60796    0.65183
 kpt#  10, nband= 12, wtk=  1.00000, kpt=  0.3214  0.0000  0.3214 (reduced coord)
  -0.21459   -0.01650    0.07341    0.07341    0.18828    0.23858    0.41894    0.41894
   0.51226    0.51760    0.63366    0.65692
 kpt#  11, nband= 12, wtk=  1.00000, kpt=  0.3571  0.0000  0.3571 (reduced coord)
  -0.19972   -0.03979    0.06687    0.06687    0.18404    0.22335    0.44326    0.44326
   0.53474    0.54029    0.64758    0.64838
 kpt#  12, nband= 12, wtk=  1.00000, kpt=  0.3929  0.0000  0.3929 (reduced coord)
  -0.18349   -0.06268    0.06173    0.06173    0.18158    0.21048    0.46792    0.46792
   0.55366    0.56760    0.62754    0.62754
 kpt#  13, nband= 12, wtk=  1.00000, kpt=  0.4286  0.0000  0.4286 (reduced coord)
  -0.16597   -0.08502    0.05805    0.05805    0.18102    0.20001    0.49266    0.49266
   0.57435    0.59370    0.60334    0.60334
 kpt#  14, nband= 12, wtk=  1.00000, kpt=  0.4643  0.0000  0.4643 (reduced coord)
  -0.14726   -0.10666    0.05583    0.05583    0.18249    0.19190    0.51650    0.51650
   0.57909    0.57909    0.59675    0.61803
 kpt#  15, nband= 12, wtk=  1.00000, kpt=  0.5000  0.0000  0.5000 (reduced coord)
  -0.12745   -0.12745    0.05508    0.05508    0.18609    0.18609    0.53117    0.53117
   0.56421    0.56421    0.62087    0.62087
 kpt#  16, nband= 12, wtk=  1.00000, kpt=  0.5000  0.0357  0.5357 (reduced coord)
  -0.12718   -0.12718    0.05266    0.05266    0.19058    0.19058    0.52307    0.52307
   0.55646    0.55646    0.62632    0.62632
 kpt#  17, nband= 12, wtk=  1.00000, kpt=  0.5000  0.0714  0.5714 (reduced coord)
  -0.12640   -0.12640    0.04640    0.04640    0.20307    0.20307    0.49803    0.49803
   0.55065    0.55065    0.62991    0.62991
 kpt#  18, nband= 12, wtk=  1.00000, kpt=  0.5000  0.1071  0.6071 (reduced coord)
  -0.12524   -0.12524    0.03839    0.03839    0.22154    0.22154    0.46547    0.46547
   0.54913    0.54913    0.63239    0.63239
 kpt#  19, nband= 12, wtk=  1.00000, kpt=  0.5000  0.1429  0.6429 (reduced coord)
  -0.12391   -0.12391    0.03049    0.03049    0.24424    0.24424    0.43131    0.43131
   0.54881    0.54881    0.63486    0.63486
 kpt#  20, nband= 12, wtk=  1.00000, kpt=  0.5000  0.1786  0.6786 (reduced coord)
  -0.12265   -0.12265    0.02400    0.02400    0.26990    0.26990    0.39748    0.39748
   0.54883    0.54883    0.63715    0.63715
 kpt#  21, nband= 12, wtk=  1.00000, kpt=  0.5000  0.2143  0.7143 (reduced coord)
  -0.12175   -0.12175    0.01977    0.01977    0.29717    0.29717    0.36534    0.36534
   0.54891    0.54891    0.63881    0.63881
 kpt#  22, nband= 12, wtk=  1.00000, kpt=  0.5000  0.2500  0.7500 (reduced coord)
  -0.12142   -0.12142    0.01831    0.01831    0.31713    0.31713    0.34374    0.34374
   0.54894    0.54894    0.63941    0.63941
 kpt#  23, nband= 12, wtk=  1.00000, kpt=  0.4750  0.2750  0.7500 (reduced coord)
  -0.12904   -0.11435    0.01250    0.02693    0.29160    0.31883    0.35675    0.35792
   0.53179    0.55834    0.62819    0.65716
 kpt#  24, nband= 12, wtk=  1.00000, kpt=  0.4500  0.3000  0.7500 (reduced coord)
  -0.13499   -0.10985    0.00787    0.03934    0.25993    0.31651    0.37606    0.38287
   0.51222    0.54881    0.63444    0.67674
 kpt#  25, nband= 12, wtk=  1.00000, kpt=  0.4250  0.3250  0.7500 (reduced coord)
  -0.13924   -0.10732    0.00451    0.05347    0.23217    0.31406    0.39748    0.40994
   0.49121    0.52555    0.65413    0.69695
 kpt#  26, nband= 12, wtk=  1.00000, kpt=  0.4000  0.3500  0.7500 (reduced coord)
  -0.14180   -0.10611    0.00247    0.06569    0.21197    0.31242    0.41925    0.43814
   0.46979    0.49772    0.67884    0.71686
 kpt#  27, nband= 12, wtk=  1.00000, kpt=  0.3750  0.3750  0.7500 (reduced coord)
  -0.14266   -0.10576    0.00179    0.07080    0.20424    0.31185    0.43439    0.45477
   0.46239    0.47337    0.70173    0.70747
 kpt#  28, nband= 12, wtk=  1.00000, kpt=  0.3500  0.3500  0.7000 (reduced coord)
  -0.15217   -0.09626   -0.00223    0.07740    0.21189    0.34938    0.41215    0.43248
   0.44448    0.45424    0.70070    0.72662
 kpt#  29, nband= 12, wtk=  1.00000, kpt=  0.3250  0.3250  0.6500 (reduced coord)
  -0.16392   -0.08507   -0.00158    0.08493    0.22059    0.38340    0.39105    0.41668
   0.42742    0.43677    0.68182    0.70307
 kpt#  30, nband= 12, wtk=  1.00000, kpt=  0.3000  0.3000  0.6000 (reduced coord)
  -0.17711   -0.07220    0.00314    0.09322    0.23011    0.37124    0.38273    0.41165
   0.42128    0.43794    0.66160    0.68356
 kpt#  31, nband= 12, wtk=  1.00000, kpt=  0.2750  0.2750  0.5500 (reduced coord)
  -0.19091   -0.05768    0.01121    0.10205    0.24009    0.35283    0.36588    0.39761
   0.40807    0.47667    0.64244    0.66692
 kpt#  32, nband= 12, wtk=  1.00000, kpt=  0.2500  0.2500  0.5000 (reduced coord)
  -0.20466   -0.04155    0.02198    0.11117    0.24998    0.33590    0.34892    0.38577
   0.39745    0.51417    0.62419    0.64543
 kpt#  33, nband= 12, wtk=  1.00000, kpt=  0.2250  0.2250  0.4500 (reduced coord)
  -0.21787   -0.02384    0.03493    0.12025    0.25900    0.32048    0.33310    0.37670
   0.38973    0.54295    0.59716    0.61295
 kpt#  34, nband= 12, wtk=  1.00000, kpt=  0.2000  0.2000  0.4000 (reduced coord)
  -0.23020   -0.00461    0.04963    0.12893    0.26620    0.30663    0.31865    0.37095
   0.38527    0.55413    0.55670    0.59793
 kpt#  35, nband= 12, wtk=  1.00000, kpt=  0.1750  0.1750  0.3500 (reduced coord)
  -0.24142    0.01608    0.06568    0.13685    0.27072    0.29436    0.30559    0.36849
   0.38435    0.51754    0.54934    0.58643
 kpt#  36, nband= 12, wtk=  1.00000, kpt=  0.1500  0.1500  0.3000 (reduced coord)
  -0.25137    0.03810    0.08267    0.14370    0.27232    0.28369    0.29391    0.36764
   0.38712    0.48256    0.53624    0.57754
 kpt#  37, nband= 12, wtk=  1.00000, kpt=  0.1250  0.1250  0.2500 (reduced coord)
  -0.25992    0.06128    0.10010    0.14929    0.27158    0.27464    0.28355    0.36384
   0.39355    0.45552    0.51901    0.57138
 kpt#  38, nband= 12, wtk=  1.00000, kpt=  0.1000  0.1000  0.2000 (reduced coord)
  -0.26701    0.08531    0.11732    0.15357    0.26723    0.26943    0.27445    0.35095
   0.40330    0.44129    0.50004    0.56813
 kpt#  39, nband= 12, wtk=  1.00000, kpt=  0.0750  0.0750  0.1500 (reduced coord)
  -0.27257    0.10961    0.13343    0.15663    0.26145    0.26650    0.26660    0.32933
   0.41552    0.43857    0.48175    0.56780
 kpt#  40, nband= 12, wtk=  1.00000, kpt=  0.0500  0.0500  0.1000 (reduced coord)
  -0.27657    0.13289    0.14712    0.15863    0.25732    0.26015    0.26280    0.30606
   0.42859    0.44068    0.46650    0.57027
 kpt#  41, nband= 12, wtk=  1.00000, kpt=  0.0250  0.0250  0.0500 (reduced coord)
  -0.27898    0.15197    0.15663    0.15974    0.25484    0.25567    0.25761    0.28892
   0.43959    0.44316    0.45637    0.57429
 kpt#  42, nband= 12, wtk=  1.00000, kpt=  0.0000  0.0000  0.0000 (reduced coord)
  -0.27978    0.16009    0.16009    0.16009    0.25401    0.25401    0.25401    0.28319
   0.44414    0.44414    0.45282    0.57381
 kpt#  43, nband= 12, wtk=  1.00000, kpt=  0.0417  0.0417  0.0417 (reduced coord)
  -0.27894    0.15063    0.15866    0.15866    0.25590    0.25611    0.25611    0.28930
   0.44126    0.44126    0.45651    0.57112
 kpt#  44, nband= 12, wtk=  1.00000, kpt=  0.0833  0.0833  0.0833 (reduced coord)
  -0.27644    0.12844    0.15479    0.15479    0.25566    0.26181    0.26181    0.30770
   0.43428    0.43428    0.46694    0.56202
 kpt#  45, nband= 12, wtk=  1.00000, kpt=  0.1250  0.1250  0.1250 (reduced coord)
  -0.27228    0.10120    0.14943    0.14943    0.25176    0.26965    0.26965    0.33289
   0.42648    0.42648    0.48168    0.55329
 kpt#  46, nband= 12, wtk=  1.00000, kpt=  0.1667  0.1667  0.1667 (reduced coord)
  -0.26651    0.07242    0.14348    0.14348    0.24622    0.27787    0.27787    0.36021
   0.42086    0.42086    0.49428    0.55201
 kpt#  47, nband= 12, wtk=  1.00000, kpt=  0.2083  0.2083  0.2083 (reduced coord)
  -0.25918    0.04361    0.13757    0.13757    0.24021    0.28467    0.28467    0.38770
   0.41980    0.41980    0.49606    0.56732
 kpt#  48, nband= 12, wtk=  1.00000, kpt=  0.2500  0.2500  0.2500 (reduced coord)
  -0.25039    0.01556    0.13209    0.13209    0.23439    0.28876    0.28876    0.41414
   0.42490    0.42490    0.49089    0.59548
 kpt#  49, nband= 12, wtk=  1.00000, kpt=  0.2917  0.2917  0.2917 (reduced coord)
  -0.24030   -0.01121    0.12726    0.12726    0.22912    0.28988    0.28988    0.43652
   0.43652    0.43696    0.48753    0.62869
 kpt#  50, nband= 12, wtk=  1.00000, kpt=  0.3333  0.3333  0.3333 (reduced coord)
  -0.22918   -0.03618    0.12322    0.12322    0.22463    0.28884    0.28884    0.44922
   0.45390    0.45390    0.49538    0.66052
 kpt#  51, nband= 12, wtk=  1.00000, kpt=  0.3750  0.3750  0.3750 (reduced coord)
  -0.21754   -0.05872    0.12004    0.12004    0.22105    0.28680    0.28680    0.44986
   0.47584    0.47584    0.51619    0.66578
 kpt#  52, nband= 12, wtk=  1.00000, kpt=  0.4167  0.4167  0.4167 (reduced coord)
  -0.20637   -0.07773    0.11776    0.11776    0.21845    0.28472    0.28472    0.44725
   0.50118    0.50118    0.54141    0.63166
 kpt#  53, nband= 12, wtk=  1.00000, kpt=  0.4583  0.4583  0.4583 (reduced coord)
  -0.19759   -0.09123    0.11638    0.11638    0.21688    0.28325    0.28325    0.44505
   0.52847    0.52847    0.56530    0.59878
 kpt#  54, nband= 12, wtk=  1.00000, kpt=  0.5000  0.5000  0.5000 (reduced coord)
  -0.19409   -0.09631    0.11592    0.11592    0.21635    0.28273    0.28273    0.44424
   0.54828    0.54828    0.57705    0.57739
 kpt#  55, nband= 12, wtk=  1.00000, kpt=  0.5139  0.4722  0.5139 (reduced coord)
  -0.19334   -0.09592    0.10914    0.11455    0.22251    0.28161    0.28562    0.44751
   0.52959    0.54123    0.57459    0.58507
 kpt#  56, nband= 12, wtk=  1.00000, kpt=  0.5278  0.4444  0.5278 (reduced coord)
  -0.19111   -0.09480    0.09283    0.11072    0.23507    0.28096    0.29397    0.45479
   0.50352    0.52861    0.56972    0.60037
 kpt#  57, nband= 12, wtk=  1.00000, kpt=  0.5417  0.4167  0.5417 (reduced coord)
  -0.18741   -0.09312    0.07271    0.10516    0.24160    0.28940    0.30706    0.45409
   0.48726    0.51569    0.56803    0.61766
 kpt#  58, nband= 12, wtk=  1.00000, kpt=  0.5556  0.3889  0.5556 (reduced coord)
  -0.18228   -0.09126    0.05202    0.09868    0.23801    0.30970    0.32403    0.43403
   0.48752    0.50353    0.57521    0.63563
 kpt#  59, nband= 12, wtk=  1.00000, kpt=  0.5694  0.3611  0.5694 (reduced coord)
  -0.17576   -0.08986    0.03276    0.09196    0.23049    0.33535    0.34412    0.40902
   0.48698    0.49252    0.59423    0.65365
 kpt#  60, nband= 12, wtk=  1.00000, kpt=  0.5833  0.3333  0.5833 (reduced coord)
  -0.16797   -0.08997    0.01666    0.08552    0.22244    0.36079    0.36666    0.38663
   0.48219    0.48287    0.62281    0.67116
 kpt#  61, nband= 12, wtk=  1.00000, kpt=  0.5972  0.3056  0.5972 (reduced coord)
  -0.15915   -0.09289    0.00558    0.07969    0.21508    0.35505    0.39091    0.39768
   0.47498    0.47516    0.65741    0.68789
 kpt#  62, nband= 12, wtk=  1.00000, kpt=  0.6111  0.2778  0.6111 (reduced coord)
  -0.14996   -0.09902    0.00073    0.07473    0.20893    0.33314    0.41532    0.42697
   0.46738    0.47010    0.69373    0.70555
 kpt#  63, nband= 12, wtk=  1.00000, kpt=  0.6250  0.2500  0.6250 (reduced coord)
  -0.14266   -0.10576    0.00179    0.07080    0.20424    0.31185    0.43439    0.45477
   0.46239    0.47337    0.70174    0.70751
 kpt#  64, nband= 12, wtk=  1.00000, kpt=  0.6000  0.2500  0.6500 (reduced coord)
  -0.14180   -0.10611    0.00247    0.06569    0.21197    0.31242    0.41925    0.43814
   0.46979    0.49772    0.67884    0.71650
 kpt#  65, nband= 12, wtk=  1.00000, kpt=  0.5750  0.2500  0.6750 (reduced coord)
  -0.13924   -0.10732    0.00451    0.05347    0.23217    0.31406    0.39748    0.40994
   0.49121    0.52555    0.65413    0.69695
 kpt#  66, nband= 12, wtk=  1.00000, kpt=  0.5500  0.2500  0.7000 (reduced coord)
  -0.13499   -0.10985    0.00787    0.03934    0.25993    0.31651    0.37606    0.38287
   0.51222    0.54881    0.63444    0.67674
 kpt#  67, nband= 12, wtk=  1.00000, kpt=  0.5250  0.2500  0.7250 (reduced coord)
  -0.12904   -0.11435    0.01250    0.02693    0.29160    0.31883    0.35675    0.35792
   0.53179    0.55834    0.62819    0.65716
 kpt#  68, nband= 12, wtk=  1.00000, kpt=  0.5000  0.2500  0.7500 (reduced coord)
  -0.12142   -0.12142    0.01831    0.01831    0.31713    0.31713    0.34374    0.34374
   0.54894    0.54894    0.63941    0.63941
 kpt#  69, nband= 12, wtk=  1.00000, kpt=  0.5000  0.2750  0.7250 (reduced coord)
  -0.13345   -0.10988    0.01096    0.02856    0.30607    0.31768    0.34378    0.35758
   0.52179    0.56495    0.62133    0.66689
 kpt#  70, nband= 12, wtk=  1.00000, kpt=  0.5000  0.3000  0.7000 (reduced coord)
  -0.14515   -0.10002    0.00784    0.04070    0.29508    0.30663    0.35863    0.37466
   0.48739    0.57094    0.61006    0.69051
 kpt#  71, nband= 12, wtk=  1.00000, kpt=  0.5000  0.3250  0.6750 (reduced coord)
  -0.15604   -0.09315    0.01032    0.05392    0.28597    0.29460    0.37759    0.39320
   0.45030    0.56991    0.60205    0.66642
 kpt#  72, nband= 12, wtk=  1.00000, kpt=  0.5000  0.3500  0.6500 (reduced coord)
  -0.16581   -0.08988    0.01900    0.06746    0.27925    0.28326    0.39879    0.41252
   0.41312    0.56277    0.59561    0.63779
 kpt#  73, nband= 12, wtk=  1.00000, kpt=  0.5000  0.3750  0.6250 (reduced coord)
  -0.17428   -0.08958    0.03311    0.08059    0.27266    0.27521    0.37730    0.42188
   0.43178    0.54929    0.59017    0.61626
[...]
  -0.12745   -0.12745    0.05508    0.05508    0.18609    0.18609    0.53117    0.53117
   0.56421    0.56421    0.62087    0.62087

== END DATASET(S) ==============================================================
================================================================================

 -outvars: echo values of variables after computation  --------
            acell      1.0260000000E+01  1.0260000000E+01  1.0260000000E+01 Bohr
              amu      2.80855000E+01
           diemac      1.20000000E+01
             ecut      1.60000000E+01 Hartree
           etotal1    -8.4621545952E+00
            fcart1     1.0251603707E-31  0.0000000000E+00  0.0000000000E+00
                      -1.0251603707E-31  0.0000000000E+00  0.0000000000E+00
-          fftalg         312
           getden1          0
           getden2         -1
             iscf1          7
             iscf2         -2
           istwfk1       0    0    0    0    0    0    0    0    0    0
                         0    0    0    7    0    0    0    3    2
           istwfk2       2    0    0    0    0    0    0    0    0    0
                         0    0    0    0    5    0    0    0    0    0
                         0    0    0    0    0    0    0    0    0    0
                         0    0    0    0    0    0    0    0    0    0
                         0    2    0    0    0    0    0    0    0    0
                       outvar_i_n : Printing only first  50 k-points.
              ixc          11
           jdtset        1    2
              kpt1    -1.25000000E-01 -1.25000000E-01  0.00000000E+00
                      -1.25000000E-01 -3.75000000E-01  0.00000000E+00
                      -2.50000000E-01 -2.50000000E-01  0.00000000E+00
                      -1.25000000E-01 -2.50000000E-01  1.25000000E-01
                      -1.25000000E-01  3.75000000E-01  0.00000000E+00
                      -2.50000000E-01  5.00000000E-01  0.00000000E+00
                      -1.25000000E-01  5.00000000E-01  1.25000000E-01
                      -3.75000000E-01 -3.75000000E-01  0.00000000E+00
                      -2.50000000E-01 -3.75000000E-01  1.25000000E-01
                      -1.25000000E-01 -3.75000000E-01  2.50000000E-01
                      -1.25000000E-01  1.25000000E-01  0.00000000E+00
                      -2.50000000E-01  2.50000000E-01  0.00000000E+00
                      -3.75000000E-01  3.75000000E-01  0.00000000E+00
                       5.00000000E-01  5.00000000E-01  0.00000000E+00
                      -3.75000000E-01  5.00000000E-01  1.25000000E-01
                      -2.50000000E-01  5.00000000E-01  2.50000000E-01
                      -2.50000000E-01  0.00000000E+00  0.00000000E+00
                       5.00000000E-01  0.00000000E+00  0.00000000E+00
                       0.00000000E+00  0.00000000E+00  0.00000000E+00
              kpt2     0.00000000E+00  0.00000000E+00  0.00000000E+00
                       3.57142857E-02  0.00000000E+00  3.57142857E-02
                       7.14285714E-02  0.00000000E+00  7.14285714E-02
                       1.07142857E-01  0.00000000E+00  1.07142857E-01
                       1.42857143E-01  0.00000000E+00  1.42857143E-01
                       1.78571429E-01  0.00000000E+00  1.78571429E-01
                       2.14285714E-01  0.00000000E+00  2.14285714E-01
                       2.50000000E-01  0.00000000E+00  2.50000000E-01
                       2.85714286E-01  0.00000000E+00  2.85714286E-01
                       3.21428571E-01  0.00000000E+00  3.21428571E-01
                       3.57142857E-01  0.00000000E+00  3.57142857E-01
                       3.92857143E-01  0.00000000E+00  3.92857143E-01
                       4.28571429E-01  0.00000000E+00  4.28571429E-01
                       4.64285714E-01  0.00000000E+00  4.64285714E-01
                       5.00000000E-01  0.00000000E+00  5.00000000E-01
                       5.00000000E-01  3.57142857E-02  5.35714286E-01
                       5.00000000E-01  7.14285714E-02  5.71428571E-01
                       5.00000000E-01  1.07142857E-01  6.07142857E-01
                       5.00000000E-01  1.42857143E-01  6.42857143E-01
                       5.00000000E-01  1.78571429E-01  6.78571429E-01
                       5.00000000E-01  2.14285714E-01  7.14285714E-01
                       5.00000000E-01  2.50000000E-01  7.50000000E-01
                       4.75000000E-01  2.75000000E-01  7.50000000E-01
                       4.50000000E-01  3.00000000E-01  7.50000000E-01
                       4.25000000E-01  3.25000000E-01  7.50000000E-01
                       4.00000000E-01  3.50000000E-01  7.50000000E-01
                       3.75000000E-01  3.75000000E-01  7.50000000E-01
                       3.50000000E-01  3.50000000E-01  7.00000000E-01
                       3.25000000E-01  3.25000000E-01  6.50000000E-01
                       3.00000000E-01  3.00000000E-01  6.00000000E-01
                       2.75000000E-01  2.75000000E-01  5.50000000E-01
                       2.50000000E-01  2.50000000E-01  5.00000000E-01
                       2.25000000E-01  2.25000000E-01  4.50000000E-01
                       2.00000000E-01  2.00000000E-01  4.00000000E-01
                       1.75000000E-01  1.75000000E-01  3.50000000E-01
                       1.50000000E-01  1.50000000E-01  3.00000000E-01
                       1.25000000E-01  1.25000000E-01  2.50000000E-01
                       1.00000000E-01  1.00000000E-01  2.00000000E-01
                       7.50000000E-02  7.50000000E-02  1.50000000E-01
                       5.00000000E-02  5.00000000E-02  1.00000000E-01
                       2.50000000E-02  2.50000000E-02  5.00000000E-02
                       0.00000000E+00  0.00000000E+00  0.00000000E+00
                       4.16666667E-02  4.16666667E-02  4.16666667E-02
                       8.33333333E-02  8.33333333E-02  8.33333333E-02
                       1.25000000E-01  1.25000000E-01  1.25000000E-01
                       1.66666667E-01  1.66666667E-01  1.66666667E-01
                       2.08333333E-01  2.08333333E-01  2.08333333E-01
                       2.50000000E-01  2.50000000E-01  2.50000000E-01
                       2.91666667E-01  2.91666667E-01  2.91666667E-01
                       3.33333333E-01  3.33333333E-01  3.33333333E-01
                       outvar_i_n : Printing only first  50 k-points.
           kptopt1          1
           kptopt2        -11
         kptrlatt        4   -4    4     -4    4    4     -4   -4    4
          kptrlen1     4.10400000E+01
          kptrlen2     3.00000000E+01
P           mkmem1         19
P           mkmem2        101
            natom           2
            nband1          6
            nband2         12
           nbdbuf1          0
           nbdbuf2          4
           ndtset           2
           ndivsm1          0
           ndivsm2          5
            ngfft          30      30      30
             nkpt1         19
             nkpt2        101
            nstep         100
             nsym          48
           ntypat           1
              occ      2.000000  2.000000  2.000000  2.000000  0.000000  0.000000
            prtwf          -1
            rprim      0.0000000000E+00  5.0000000000E-01  5.0000000000E-01
                       5.0000000000E-01  0.0000000000E+00  5.0000000000E-01
                       5.0000000000E-01  5.0000000000E-01  0.0000000000E+00
           shiftk1     0.00000000E+00  0.00000000E+00  0.00000000E+00
           shiftk2     5.00000000E-01  5.00000000E-01  5.00000000E-01
          spgroup         227
           strten1    -6.7884809796E-05 -6.7884809796E-05 -6.7884809796E-05
                       0.0000000000E+00  0.0000000000E+00  0.0000000000E+00
           symrel      1  0  0   0  1  0   0  0  1      -1  0  0   0 -1  0   0  0 -1
                       0 -1  1   0 -1  0   1 -1  0       0  1 -1   0  1  0  -1  1  0
                      -1  0  0  -1  0  1  -1  1  0       1  0  0   1  0 -1   1 -1  0
                       0  1 -1   1  0 -1   0  0 -1       0 -1  1  -1  0  1   0  0  1
                      -1  0  0  -1  1  0  -1  0  1       1  0  0   1 -1  0   1  0 -1
                       0 -1  1   1 -1  0   0 -1  0       0  1 -1  -1  1  0   0  1  0
                       1  0  0   0  0  1   0  1  0      -1  0  0   0  0 -1   0 -1  0
                       0  1 -1   0  0 -1   1  0 -1       0 -1  1   0  0  1  -1  0  1
                      -1  0  1  -1  1  0  -1  0  0       1  0 -1   1 -1  0   1  0  0
                       0 -1  0   1 -1  0   0 -1  1       0  1  0  -1  1  0   0  1 -1
                       1  0 -1   0  0 -1   0  1 -1      -1  0  1   0  0  1   0 -1  1
                       0  1  0   0  0  1   1  0  0       0 -1  0   0  0 -1  -1  0  0
                       1  0 -1   0  1 -1   0  0 -1      -1  0  1   0 -1  1   0  0  1
                       0 -1  0   0 -1  1   1 -1  0       0  1  0   0  1 -1  -1  1  0
                      -1  0  1  -1  0  0  -1  1  0       1  0 -1   1  0  0   1 -1  0
                       0  1  0   1  0  0   0  0  1       0 -1  0  -1  0  0   0  0 -1
                       0  0 -1   0  1 -1   1  0 -1       0  0  1   0 -1  1  -1  0  1
                       1 -1  0   0 -1  1   0 -1  0      -1  1  0   0  1 -1   0  1  0
                       0  0  1   1  0  0   0  1  0       0  0 -1  -1  0  0   0 -1  0
                      -1  1  0  -1  0  0  -1  0  1       1 -1  0   1  0  0   1  0 -1
                       0  0  1   0  1  0   1  0  0       0  0 -1   0 -1  0  -1  0  0
                       1 -1  0   0 -1  0   0 -1  1      -1  1  0   0  1  0   0  1 -1
                       0  0 -1   1  0 -1   0  1 -1       0  0  1  -1  0  1   0 -1  1
                      -1  1  0  -1  0  1  -1  0  0       1 -1  0   1  0 -1   1  0  0
            tnons      0.0000000  0.0000000  0.0000000     0.2500000  0.2500000  0.2500000
                       0.0000000  0.0000000  0.0000000     0.2500000  0.2500000  0.2500000
                       0.0000000  0.0000000  0.0000000     0.2500000  0.2500000  0.2500000
                       0.0000000  0.0000000  0.0000000     0.2500000  0.2500000  0.2500000
                       0.0000000  0.0000000  0.0000000     0.2500000  0.2500000  0.2500000
                       0.0000000  0.0000000  0.0000000     0.2500000  0.2500000  0.2500000
                       0.0000000  0.0000000  0.0000000     0.2500000  0.2500000  0.2500000
                       0.0000000  0.0000000  0.0000000     0.2500000  0.2500000  0.2500000
                       0.0000000  0.0000000  0.0000000     0.2500000  0.2500000  0.2500000
                       0.0000000  0.0000000  0.0000000     0.2500000  0.2500000  0.2500000
                       0.0000000  0.0000000  0.0000000     0.2500000  0.2500000  0.2500000
                       0.0000000  0.0000000  0.0000000     0.2500000  0.2500000  0.2500000
                       0.0000000  0.0000000  0.0000000     0.2500000  0.2500000  0.2500000
                       0.0000000  0.0000000  0.0000000     0.2500000  0.2500000  0.2500000
                       0.0000000  0.0000000  0.0000000     0.2500000  0.2500000  0.2500000
                       0.0000000  0.0000000  0.0000000     0.2500000  0.2500000  0.2500000
                       0.0000000  0.0000000  0.0000000     0.2500000  0.2500000  0.2500000
                       0.0000000  0.0000000  0.0000000     0.2500000  0.2500000  0.2500000
                       0.0000000  0.0000000  0.0000000     0.2500000  0.2500000  0.2500000
                       0.0000000  0.0000000  0.0000000     0.2500000  0.2500000  0.2500000
                       0.0000000  0.0000000  0.0000000     0.2500000  0.2500000  0.2500000
                       0.0000000  0.0000000  0.0000000     0.2500000  0.2500000  0.2500000
                       0.0000000  0.0000000  0.0000000     0.2500000  0.2500000  0.2500000
                       0.0000000  0.0000000  0.0000000     0.2500000  0.2500000  0.2500000
           tolvrs1     1.00000000E-12
           tolvrs2     0.00000000E+00
           tolwfr1     0.00000000E+00
           tolwfr2     1.00000000E-20
            typat      1  1
              wtk1       0.02344    0.09375    0.02344    0.09375    0.09375    0.09375
                         0.09375    0.02344    0.09375    0.09375    0.04688    0.04688
                         0.04688    0.01172    0.04688    0.02344    0.03125    0.01563
                         0.00391
              wtk2       1.00000    1.00000    1.00000    1.00000    1.00000    1.00000
                         1.00000    1.00000    1.00000    1.00000    1.00000    1.00000
                         1.00000    1.00000    1.00000    1.00000    1.00000    1.00000
                         1.00000    1.00000    1.00000    1.00000    1.00000    1.00000
                         1.00000    1.00000    1.00000    1.00000    1.00000    1.00000
                         1.00000    1.00000    1.00000    1.00000    1.00000    1.00000
                         1.00000    1.00000    1.00000    1.00000    1.00000    1.00000
                         1.00000    1.00000    1.00000    1.00000    1.00000    1.00000
                         1.00000    1.00000
                       outvars : Printing only first  50 k-points.
           xangst      0.0000000000E+00  0.0000000000E+00  0.0000000000E+00
                       1.3573395400E+00  1.3573395400E+00  1.3573395400E+00
            xcart      0.0000000000E+00  0.0000000000E+00  0.0000000000E+00
                       2.5650000000E+00  2.5650000000E+00  2.5650000000E+00
             xred      0.0000000000E+00  0.0000000000E+00  0.0000000000E+00
                       2.5000000000E-01  2.5000000000E-01  2.5000000000E-01
            znucl       14.00000

================================================================================


- Timing analysis has been suppressed with timopt=0



================================================================================

 Suggested references for the acknowledgment of ABINIT usage.

 The users of ABINIT have little formal obligations with respect to the ABINIT group
 (those specified in the GNU General Public License, http://www.gnu.org/copyleft/gpl.txt).
 However, it is common practice in the scientific literature,
 to acknowledge the efforts of people that have made the research possible.
 In this spirit, please find below suggested citations of work written by ABINIT developers,
 corresponding to implementations inside of ABINIT that you have used in the present run.
 Note also that it will be of great value to readers of publications presenting these results,
 to read papers enabling them to understand the theoretical formalism and details
 of the ABINIT implementation.
 For information on why they are suggested, see also https://docs.abinit.org/theory/acknowledgments.
-
- [1] The Abinit project: Impact, environment and recent developments.
- Computer Phys. Comm. 248, 107042 (2020).
- X.Gonze, B. Amadon, G. Antonius, F.Arnardi, L.Baguet, J.-M.Beuken,
- J.Bieder, F.Bottin, J.Bouchet, E.Bousquet, N.Brouwer, F.Bruneval,
- G.Brunin, T.Cavignac, J.-B. Charraud, Wei Chen, M.Cote, S.Cottenier,
- J.Denier, G.Geneste, Ph.Ghosez, M.Giantomassi, Y.Gillet, O.Gingras,
- D.R.Hamann, G.Hautier, Xu He, N.Helbig, N.Holzwarth, Y.Jia, F.Jollet,
- W.Lafargue-Dit-Hauret, K.Lejaeghere, M.A.L.Marques, A.Martin, C.Martins,
- H.P.C. Miranda, F.Naccarato, K. Persson, G.Petretto, V.Planes, Y.Pouillon,
- S.Prokhorenko, F.Ricci, G.-M.Rignanese, A.H.Romero, M.M.Schmitt, M.Torrent,
- M.J.van Setten, B.Van Troeye, M.J.Verstraete, G.Zerah and J.W.Zwanzig
- Comment: the fifth generic paper describing the ABINIT project.
- Note that a version of this paper, that is not formatted for Computer Phys. Comm.
- is available at https://www.abinit.org/sites/default/files/ABINIT20.pdf .
- The licence allows the authors to put it on the Web.
- DOI and bibtex: see https://docs.abinit.org/theory/bibliography/#gonze2020
-
- [2] Optimized norm-conserving Vanderbilt pseudopotentials.
- D.R. Hamann, Phys. Rev. B 88, 085117 (2013).
- Comment: Some pseudopotential generated using the ONCVPSP code were used.
- DOI and bibtex: see https://docs.abinit.org/theory/bibliography/#hamann2013
-
- [3] ABINIT: Overview, and focus on selected capabilities
- J. Chem. Phys. 152, 124102 (2020).
- A. Romero, D.C. Allan, B. Amadon, G. Antonius, T. Applencourt, L.Baguet,
- J.Bieder, F.Bottin, J.Bouchet, E.Bousquet, F.Bruneval,
- G.Brunin, D.Caliste, M.Cote,
- J.Denier, C. Dreyer, Ph.Ghosez, M.Giantomassi, Y.Gillet, O.Gingras,
- D.R.Hamann, G.Hautier, F.Jollet, G. Jomard,
- A.Martin,
- H.P.C. Miranda, F.Naccarato, G.Petretto, N.A. Pike, V.Planes,
- S.Prokhorenko, T. Rangel, F.Ricci, G.-M.Rignanese, M.Royo, M.Stengel, M.Torrent,
- M.J.van Setten, B.Van Troeye, M.J.Verstraete, J.Wiktor, J.W.Zwanziger, and X.Gonze.
- Comment: a global overview of ABINIT, with focus on selected capabilities .
- Note that a version of this paper, that is not formatted for J. Chem. Phys
- is available at https://www.abinit.org/sites/default/files/ABINIT20_JPC.pdf .
- The licence allows the authors to put it on the Web.
- DOI and bibtex: see https://docs.abinit.org/theory/bibliography/#romero2020
-
- [4] Recent developments in the ABINIT software package.
- Computer Phys. Comm. 205, 106 (2016).
- X.Gonze, F.Jollet, F.Abreu Araujo, D.Adams, B.Amadon, T.Applencourt,
- C.Audouze, J.-M.Beuken, J.Bieder, A.Bokhanchuk, E.Bousquet, F.Bruneval
- D.Caliste, M.Cote, F.Dahm, F.Da Pieve, M.Delaveau, M.Di Gennaro,
- B.Dorado, C.Espejo, G.Geneste, L.Genovese, A.Gerossier, M.Giantomassi,
- Y.Gillet, D.R.Hamann, L.He, G.Jomard, J.Laflamme Janssen, S.Le Roux,
- A.Levitt, A.Lherbier, F.Liu, I.Lukacevic, A.Martin, C.Martins,
- M.J.T.Oliveira, S.Ponce, Y.Pouillon, T.Rangel, G.-M.Rignanese,
- A.H.Romero, B.Rousseau, O.Rubel, A.A.Shukri, M.Stankovski, M.Torrent,
- M.J.Van Setten, B.Van Troeye, M.J.Verstraete, D.Waroquier, J.Wiktor,
- B.Xu, A.Zhou, J.W.Zwanziger.
- Comment: the fourth generic paper describing the ABINIT project.
- Note that a version of this paper, that is not formatted for Computer Phys. Comm.
- is available at https://www.abinit.org/sites/default/files/ABINIT16.pdf .
- The licence allows the authors to put it on the Web.
- DOI and bibtex: see https://docs.abinit.org/theory/bibliography/#gonze2016
-
- And optionally:
-
- [5] ABINIT: First-principles approach of materials and nanosystem properties.
- Computer Phys. Comm. 180, 2582-2615 (2009).
- X. Gonze, B. Amadon, P.-M. Anglade, J.-M. Beuken, F. Bottin, P. Boulanger, F. Bruneval,
- D. Caliste, R. Caracas, M. Cote, T. Deutsch, L. Genovese, Ph. Ghosez, M. Giantomassi
- S. Goedecker, D.R. Hamann, P. Hermet, F. Jollet, G. Jomard, S. Leroux, M. Mancini, S. Mazevet,
- M.J.T. Oliveira, G. Onida, Y. Pouillon, T. Rangel, G.-M. Rignanese, D. Sangalli, R. Shaltaf,
- M. Torrent, M.J. Verstraete, G. Zerah, J.W. Zwanziger
- Comment: the third generic paper describing the ABINIT project.
- Note that a version of this paper, that is not formatted for Computer Phys. Comm.
- is available at https://www.abinit.org/sites/default/files/ABINIT_CPC_v10.pdf .
- The licence allows the authors to put it on the Web.
- DOI and bibtex: see https://docs.abinit.org/theory/bibliography/#gonze2009
-
- Proc.   0 individual time (sec): cpu=         16.3  wall=         16.3

================================================================================

 Calculation completed.
.Delivered   1 WARNINGs and  11 COMMENTs to log file.
+Overall time at end (sec) : cpu=         16.3  wall=         16.3
- [ALL OK] MEMORY CONSUMPTION REPORT FOR C CODE:
-   There were 125 allocations and 125 deallocations in C code
- [ALL OK] MEMORY CONSUMPTION REPORT FOR FORTRAN CODE:
-   There were 2067091 allocations and 2067091 deallocations in Fortran
-   Remaining memory at the end of the calculation is 0
