
.Version 9.9.0 of ABINIT 
.(MPI version, prepared for a x86_64_linux_intel18.0 computer) 

.Copyright (C) 1998-2022 ABINIT group . 
 ABINIT comes with ABSOLUTELY NO WARRANTY.
 It is free software, and you are welcome to redistribute it
 under certain conditions (GNU General Public License,
 see ~abinit/COPYING or http://www.gnu.org/copyleft/gpl.txt).

 ABINIT is a project of the Universite Catholique de Louvain,
 Corning Inc. and other collaborators, see ~abinit/doc/developers/contributors.txt .
 Please read https://docs.abinit.org/theory/acknowledgments for suggested
 acknowledgments of the ABINIT effort.
 For more information, see https://www.abinit.org .

.Starting date : Mon  6 Feb 2023.
- ( at 18h03 )
  
- input  file    -> tlruj_1.abi
- output file    -> tlruj_1.abo
- root for input  files -> tlruj_1i
- root for output files -> tlruj_1.o
 
- inpspheads : Reading pseudopotential header in XML form from 
-   /home/users/lmacenul/abinit/tests/Psps_for_tests/Pseudodojo_paw_pbe_standard/Ni.xml
- inpspheads : Reading pseudopotential header in XML form from 
-   /home/users/lmacenul/abinit/tests/Psps_for_tests/Pseudodojo_paw_pbe_standard/Ni.xml
- inpspheads : Reading pseudopotential header in XML form from 
-   /home/users/lmacenul/abinit/tests/Psps_for_tests/Pseudodojo_paw_pbe_standard/O.xml
 
 Symmetries : space group R-3 m (#166); Bravais hR (rhombohedral)
================================================================================
 Values of the parameters that define the memory need of the present run
     intxc =       0    ionmov =       0      iscf =      17    lmnmax =      18
     lnmax =       6     mgfft =      30  mpssoang =       3    mqgrid =    3001
     natom =       4  nloc_mem =       2    nspden =       2   nspinor =       1
    nsppol =       2      nsym =      12    n1xccc =       1    ntypat =       3
    occopt =       0   xclevel =       2
-    mband =          26        mffmem =           1         mkmem =          10
       mpw =         376          nfft =       27000          nkpt =          10
 PAW method is used; the additional fine FFT grid is defined by:
   mgfftf=        40    nfftf =     64000
================================================================================
P This job should need less than                      41.508 Mbytes of memory.
  Rough estimation (10% accuracy) of disk space for files :
_ WF disk file :      2.985 Mbytes ; DEN or POT disk file :      0.979 Mbytes.
================================================================================
 
--------------------------------------------------------------------------------
------------- Echo of variables that govern the present computation ------------
--------------------------------------------------------------------------------
-
- outvars: echo of selected default values                                      
-   iomode0 =  0 , fftalg0 =512 , wfoptalg0 = 10
-
- outvars: echo of global parameters not present in the input file              
-  max_nthreads =   40
-
 -outvars: echo values of preprocessed input variables --------
            acell      7.8800000000E+00  7.8800000000E+00  7.8800000000E+00 Bohr
              amu      5.86900000E+01  5.86900000E+01  1.59994000E+01
          chkprim           0
      chksymbreak           0
        dmatpuopt           3
             ecut      1.00000000E+01 Hartree
-          fftalg         512
              ixc     -101130
              kpt      1.25000000E-01  1.25000000E-01  1.25000000E-01
                       3.75000000E-01  1.25000000E-01  1.25000000E-01
                      -3.75000000E-01  1.25000000E-01  1.25000000E-01
                      -1.25000000E-01  1.25000000E-01  1.25000000E-01
                       3.75000000E-01  3.75000000E-01  1.25000000E-01
                      -3.75000000E-01  3.75000000E-01  1.25000000E-01
                      -1.25000000E-01  3.75000000E-01  1.25000000E-01
                      -3.75000000E-01 -3.75000000E-01  1.25000000E-01
                       3.75000000E-01  3.75000000E-01  3.75000000E-01
                      -3.75000000E-01  3.75000000E-01  3.75000000E-01
         kptrlatt        4    0    0      0    4    0      0    0    4
          kptrlen      2.22880057E+01
            lpawu           2       2       1
P           mkmem          10
            natom           4
            nband          26
            ngfft          30      30      30
          ngfftdg          40      40      40
             nkpt          10
           nspden           2
           nsppol           2
             nsym          12
           ntypat           3
              occ      1.000000  1.000000  1.000000  1.000000  1.000000  1.000000
                       1.000000  1.000000  1.000000  1.000000  1.000000  1.000000
                       1.000000  1.000000  1.000000  1.000000  1.000000  1.000000
                       1.000000  1.000000  1.000000  1.000000  1.000000  1.000000
                       0.000000  0.000000
                       1.000000  1.000000  1.000000  1.000000  1.000000  1.000000
                       1.000000  1.000000  1.000000  1.000000  1.000000  1.000000
                       1.000000  1.000000  1.000000  1.000000  1.000000  1.000000
                       1.000000  1.000000  1.000000  1.000000  1.000000  1.000000
                       0.000000  0.000000
           occopt           0
        pawecutdg      2.00000000E+01 Hartree
           prtvol           3
            rprim      5.0000000000E-01  5.0000000000E-01  1.0000000000E+00
                       1.0000000000E+00  5.0000000000E-01  5.0000000000E-01
                       5.0000000000E-01  1.0000000000E+00  5.0000000000E-01
           shiftk      5.00000000E-01  5.00000000E-01  5.00000000E-01
          spgroup         166
           spinat      0.0000000000E+00  0.0000000000E+00  3.0000000000E+00
                       0.0000000000E+00  0.0000000000E+00 -3.0000000000E+00
                       0.0000000000E+00  0.0000000000E+00  0.0000000000E+00
                       0.0000000000E+00  0.0000000000E+00  0.0000000000E+00
           symrel      1  0  0   0  1  0   0  0  1      -1  0  0   0 -1  0   0  0 -1
                       0  1  0   1  0  0   0  0  1       0 -1  0  -1  0  0   0  0 -1
                       0  0  1   1  0  0   0  1  0       0  0 -1  -1  0  0   0 -1  0
                       1  0  0   0  0  1   0  1  0      -1  0  0   0  0 -1   0 -1  0
                       0  1  0   0  0  1   1  0  0       0 -1  0   0  0 -1  -1  0  0
                       0  0  1   0  1  0   1  0  0       0  0 -1   0 -1  0  -1  0  0
           tolvrs      1.00000000E-10
            typat      1  2  3  3
          usepawu           1
           useylm           1
              wtk        0.03125    0.09375    0.09375    0.09375    0.09375    0.18750
                         0.18750    0.09375    0.03125    0.09375
           xangst      0.0000000000E+00  0.0000000000E+00  0.0000000000E+00
                       4.1699164037E+00  4.1699164037E+00  4.1699164037E+00
                       2.0849582018E+00  2.0849582018E+00  2.0849582018E+00
                       6.2548746055E+00  6.2548746055E+00  6.2548746055E+00
            xcart      0.0000000000E+00  0.0000000000E+00  0.0000000000E+00
                       7.8800000000E+00  7.8800000000E+00  7.8800000000E+00
                       3.9400000000E+00  3.9400000000E+00  3.9400000000E+00
                       1.1820000000E+01  1.1820000000E+01  1.1820000000E+01
             xred      0.0000000000E+00  0.0000000000E+00  0.0000000000E+00
                       5.0000000000E-01  5.0000000000E-01  5.0000000000E-01
                       2.5000000000E-01  2.5000000000E-01  2.5000000000E-01
                       7.5000000000E-01  7.5000000000E-01  7.5000000000E-01
            znucl       28.00000   28.00000    8.00000
 
================================================================================
 
 chkinp: Checking input parameters for consistency.
 
================================================================================
== DATASET  1 ==================================================================
-   mpi_nproc: 1, omp_nthreads: 40 (-1 if OMP is not activated)
 

--- !DatasetInfo
iteration_state: {dtset: 1, }
dimensions: {natom: 4, nkpt: 10, mband: 26, nsppol: 2, nspinor: 1, nspden: 2, mpw: 376, }
cutoff_energies: {ecut:  10.0, pawecutdg:  20.0, }
electrons: {nelect:   4.80000000E+01, charge:   0.00000000E+00, occopt:   0.00000000E+00, tsmear:   1.00000000E-02, }
meta: {optdriver: 0, ionmov: 0, optcell: 0, iscf: 17, paral_kgb: 0, }
...

 Real(R)+Recip(G) space primitive vectors, cartesian coordinates (Bohr,Bohr^-1):
 R(1)=  3.9400000  3.9400000  7.8800000  G(1)= -0.0634518 -0.0634518  0.1903553
 R(2)=  7.8800000  3.9400000  3.9400000  G(2)=  0.1903553 -0.0634518 -0.0634518
 R(3)=  3.9400000  7.8800000  3.9400000  G(3)= -0.0634518  0.1903553 -0.0634518
 Unit cell volume ucvol=  2.4465194E+02 bohr^3
 Angles (23,13,12)=  3.35573098E+01  3.35573098E+01  3.35573098E+01 degrees
 
 Coarse grid specifications (used for wave-functions):
 
 getcut: wavevector=  0.0000  0.0000  0.0000  ngfft=  30  30  30
         ecut(hartree)=     10.000   => boxcut(ratio)=   2.18911
 
 Fine grid specifications (used for densities):
 
 getcut: wavevector=  0.0000  0.0000  0.0000  ngfft=  40  40  40
         ecut(hartree)=     20.000   => boxcut(ratio)=   2.06006
 
--- Pseudopotential description ------------------------------------------------
- pspini: atom type   1  psp file is /home/users/lmacenul/abinit/tests/Psps_for_tests/Pseudodojo_paw_pbe_standard/Ni.xml
- pspatm: opening atomic psp file    /home/users/lmacenul/abinit/tests/Psps_for_tests/Pseudodojo_paw_pbe_standard/Ni.xml
- pspatm : Reading pseudopotential header in XML form from /home/users/lmacenul/abinit/tests/Psps_for_tests/Pseudodojo_paw_pbe_standard/Ni.xml
 Pseudopotential format is: paw10
 basis_size (lnmax)=  6 (lmn_size= 18), orbitals=   0   0   1   1   2   2
 Spheres core radius: rc_sph= 1.81432190
 1 radial meshes are used:
  - mesh 1: r(i)=AA*[exp(BB*(i-1))-1], size=1500 , AA= 0.29784E-03 BB= 0.83395E-02
 Shapefunction is SIN type: shapef(r)=[sin(pi*r/rshp)/(pi*r/rshp)]**2
 Radius for shape functions =  1.60094920
 mmax= 1500
 Radial grid used for partial waves is grid 1
 Radial grid used for projectors is grid 1
 Radial grid used for (t)core density is grid 1
 Radial grid used for Vloc is grid 1
 Radial grid used for pseudo valence density is grid 1
 Mesh size for Vloc has been set to 1333 to avoid numerical noise.
 Compensation charge density is not taken into account in XC energy/potential
 pspatm: atomic psp has been read  and splines computed
 
- pspini: atom type   2  psp file is /home/users/lmacenul/abinit/tests/Psps_for_tests/Pseudodojo_paw_pbe_standard/Ni.xml
- pspatm: opening atomic psp file    /home/users/lmacenul/abinit/tests/Psps_for_tests/Pseudodojo_paw_pbe_standard/Ni.xml
- pspatm : Reading pseudopotential header in XML form from /home/users/lmacenul/abinit/tests/Psps_for_tests/Pseudodojo_paw_pbe_standard/Ni.xml
 Pseudopotential format is: paw10
 basis_size (lnmax)=  6 (lmn_size= 18), orbitals=   0   0   1   1   2   2
 Spheres core radius: rc_sph= 1.81432190
 1 radial meshes are used:
  - mesh 1: r(i)=AA*[exp(BB*(i-1))-1], size=1500 , AA= 0.29784E-03 BB= 0.83395E-02
 Shapefunction is SIN type: shapef(r)=[sin(pi*r/rshp)/(pi*r/rshp)]**2
 Radius for shape functions =  1.60094920
 mmax= 1500
 Radial grid used for partial waves is grid 1
 Radial grid used for projectors is grid 1
 Radial grid used for (t)core density is grid 1
 Radial grid used for Vloc is grid 1
 Radial grid used for pseudo valence density is grid 1
 Mesh size for Vloc has been set to 1333 to avoid numerical noise.
 Compensation charge density is not taken into account in XC energy/potential
 pspatm: atomic psp has been read  and splines computed
 
- pspini: atom type   3  psp file is /home/users/lmacenul/abinit/tests/Psps_for_tests/Pseudodojo_paw_pbe_standard/O.xml
- pspatm: opening atomic psp file    /home/users/lmacenul/abinit/tests/Psps_for_tests/Pseudodojo_paw_pbe_standard/O.xml
- pspatm : Reading pseudopotential header in XML form from /home/users/lmacenul/abinit/tests/Psps_for_tests/Pseudodojo_paw_pbe_standard/O.xml
 Pseudopotential format is: paw10
 basis_size (lnmax)=  4 (lmn_size=  8), orbitals=   0   0   1   1
 Spheres core radius: rc_sph= 1.41465230
 1 radial meshes are used:
  - mesh 1: r(i)=AA*[exp(BB*(i-1))-1], size=2001 , AA= 0.72565E-03 BB= 0.58052E-02
 Shapefunction is SIN type: shapef(r)=[sin(pi*r/rshp)/(pi*r/rshp)]**2
 Radius for shape functions =  1.20231231
 mmax= 2001
 Radial grid used for partial waves is grid 1
 Radial grid used for projectors is grid 1
 Radial grid used for (t)core density is grid 1
 Radial grid used for Vloc is grid 1
 Radial grid used for pseudo valence density is grid 1
 Mesh size for Vloc has been set to 1762 to avoid numerical noise.
 Compensation charge density is not taken into account in XC energy/potential
 pspatm: atomic psp has been read  and splines computed
 
   2.55203824E+03                                ecore*ucvol(ha*bohr**3)
--------------------------------------------------------------------------------
 
P newkpt: treating     26 bands with npw=     352 for ikpt=   1 by node    0
P newkpt: treating     26 bands with npw=     362 for ikpt=   2 by node    0
P newkpt: treating     26 bands with npw=     372 for ikpt=   3 by node    0
P newkpt: treating     26 bands with npw=     364 for ikpt=   4 by node    0
P newkpt: treating     26 bands with npw=     370 for ikpt=   5 by node    0
P newkpt: treating     26 bands with npw=     371 for ikpt=   6 by node    0
P newkpt: treating     26 bands with npw=     376 for ikpt=   7 by node    0
P newkpt: treating     26 bands with npw=     368 for ikpt=   8 by node    0
P newkpt: treating     26 bands with npw=     355 for ikpt=   9 by node    0
P newkpt: treating     26 bands with npw=     369 for ikpt=  10 by node    0
P newkpt: treating     26 bands with npw=     352 for ikpt=   1 by node    0
P newkpt: treating     26 bands with npw=     362 for ikpt=   2 by node    0
P newkpt: treating     26 bands with npw=     372 for ikpt=   3 by node    0
P newkpt: treating     26 bands with npw=     364 for ikpt=   4 by node    0
P newkpt: treating     26 bands with npw=     370 for ikpt=   5 by node    0
P newkpt: treating     26 bands with npw=     371 for ikpt=   6 by node    0
P newkpt: treating     26 bands with npw=     376 for ikpt=   7 by node    0
P newkpt: treating     26 bands with npw=     368 for ikpt=   8 by node    0
P newkpt: treating     26 bands with npw=     355 for ikpt=   9 by node    0
P newkpt: treating     26 bands with npw=     369 for ikpt=  10 by node    0
_setup2: Arith. and geom. avg. npw (full set) are     368.875     368.830
 
 
 ******************************************
 DFT+U Method used: FLL
 ******************************************
 
================================================================================

--- !BeginCycle
iteration_state: {dtset: 1, }
solver: {iscf: 17, nstep: 30, nline: 4, wfoptalg: 10, }
tolerances: {tolvrs: 1.00E-10, }
...
 
     iter   Etot(hartree)      deltaE(h)  residm     nres2
 ETOT  1  -367.53061135785    -3.675E+02 6.510E+00 2.587E+03
 ETOT  2  -371.85119950382    -4.321E+00 7.862E-02 2.526E+03
 ETOT  3  -364.17664473446     7.675E+00 1.451E-01 4.504E+02
 ETOT  4  -363.98424233027     1.924E-01 6.587E-02 1.567E+02
 ETOT  5  -364.21995217989    -2.357E-01 9.003E-02 2.351E+02
 ETOT  6  -363.98698538925     2.330E-01 1.712E-02 2.430E+02
 ETOT  7  -363.73109499471     2.559E-01 2.209E-02 2.807E+01
 ETOT  8  -363.72109563686     9.999E-03 1.403E-03 9.975E+00
 ETOT  9  -363.72335963921    -2.264E-03 5.879E-05 1.030E+01
 ETOT 10  -363.70931763316     1.404E-02 7.575E-04 1.666E+00
 ETOT 11  -363.70879991142     5.177E-04 1.387E-04 1.796E-01
 ETOT 12  -363.70978356622    -9.837E-04 8.669E-06 6.621E-02
 ETOT 13  -363.71075134518    -9.678E-04 3.060E-05 5.425E-02
 ETOT 14  -363.71079686712    -4.552E-05 7.653E-06 2.070E-02
 ETOT 15  -363.71080591565    -9.049E-06 9.687E-06 8.605E-04
 ETOT 16  -363.71080811188    -2.196E-06 1.236E-06 1.417E-04
 ETOT 17  -363.71080870123    -5.894E-07 4.096E-07 3.078E-05
 ETOT 18  -363.71080883780    -1.366E-07 1.914E-07 1.888E-05
 ETOT 19  -363.71080890827    -7.047E-08 1.227E-07 8.831E-05
 ETOT 20  -363.71080886481     4.346E-08 1.792E-08 4.329E-07
 ETOT 21  -363.71080887273    -7.918E-09 1.814E-08 2.560E-07
 ETOT 22  -363.71080887426    -1.532E-09 1.478E-09 1.036E-07
 ETOT 23  -363.71080887452    -2.599E-10 1.616E-09 5.686E-09
 ETOT 24  -363.71080887458    -5.997E-11 9.688E-11 1.752E-09
 ETOT 25  -363.71080887459    -1.160E-11 8.848E-11 6.320E-10
 ETOT 26  -363.71080887459    -2.501E-12 1.436E-11 2.712E-11
 
 At SCF step   26       nres2   =  2.71E-11 < tolvrs=  1.00E-10 =>converged.
 
 Cartesian components of stress tensor (hartree/bohr^3)
  sigma(1 1)=  1.42470235E-01  sigma(3 2)= -4.88159609E-04
  sigma(2 2)=  1.42470235E-01  sigma(3 1)= -4.88159609E-04
  sigma(3 3)=  1.42470235E-01  sigma(2 1)= -4.88159609E-04
 

--- !ResultsGS
iteration_state: {dtset: 1, }
comment   : Summary of ground state results
lattice_vectors:
- [  3.9400000,   3.9400000,   7.8800000, ]
- [  7.8800000,   3.9400000,   3.9400000, ]
- [  3.9400000,   7.8800000,   3.9400000, ]
lattice_lengths: [   9.65099,    9.65099,    9.65099, ]
lattice_angles: [ 33.557,  33.557,  33.557, ] # degrees, (23, 13, 12)
lattice_volume:   2.4465194E+02
convergence: {deltae: -2.501E-12, res2:  2.712E-11, residm:  1.436E-11, diffor: null, }
etotal    :  -3.63710809E+02
entropy   :   0.00000000E+00
fermie    :   4.08065918E-01
cartesian_stress_tensor: # hartree/bohr^3
- [  1.42470235E-01,  -4.88159609E-04,  -4.88159609E-04, ]
- [ -4.88159609E-04,   1.42470235E-01,  -4.88159609E-04, ]
- [ -4.88159609E-04,  -4.88159609E-04,   1.42470235E-01, ]
pressure_GPa:  -4.1916E+03
xred      :
- [  0.0000E+00,   0.0000E+00,   0.0000E+00, Ni]
- [  5.0000E-01,   5.0000E-01,   5.0000E-01, Ni]
- [  2.5000E-01,   2.5000E-01,   2.5000E-01,  O]
- [  7.5000E-01,   7.5000E-01,   7.5000E-01,  O]
cartesian_forces: # hartree/bohr
- [  0.00000000E+00,   0.00000000E+00,   0.00000000E+00, ]
- [  0.00000000E+00,   0.00000000E+00,   0.00000000E+00, ]
- [  1.46181318E-07,   1.46181318E-07,   1.46181318E-07, ]
- [ -1.46181318E-07,  -1.46181318E-07,  -1.46181318E-07, ]
force_length_stats: {min:   0.00000000E+00, max:   2.53193470E-07, mean:   1.26596735E-07, }
...

 Integrated electronic and magnetization densities in atomic spheres:
 ---------------------------------------------------------------------
 Radius=ratsph(iatom), smearing ratsm=  0.0000. Diff(up-dn)=approximate z local magnetic moment.
 Atom    Radius    up_density   dn_density  Total(up+dn)  Diff(up-dn)
    1   1.81432     8.023623     7.866450     15.890073     0.157173
    2   1.81432     7.866450     8.023623     15.890072    -0.157173
    3   1.41465     2.292304     2.292304      4.584608     0.000000
    4   1.41465     2.292304     2.292304      4.584608     0.000000
 ---------------------------------------------------------------------
  Sum:             20.474681    20.474681     40.949362     0.000000
 Total magnetization (from the atomic spheres):             0.000000
 Total magnetization (exact up - dn):                       0.000000
 
 PAW TEST:
 ==== Compensation charge inside spheres ============
 The following values must be close to each other ...
 Compensation charge over spherical meshes =     12.718818261559477
 Compensation charge over fine fft grid    =     12.719105583616606
 
 ==== Results concerning PAW augmentation regions ====
 
 Total pseudopotential strength Dij (hartree):
 Atom #  1 - Spin component 1
  -2.33150   0.37571   0.00000   0.00000   0.00000   0.00000   0.00000   0.00000  -0.00171  -0.00171   0.00000  -0.00171 ...
   0.37571   0.04442   0.00000   0.00000   0.00000   0.00000   0.00000   0.00000   0.00034   0.00034   0.00000   0.00034 ...
   0.00000   0.00000  -2.24277  -0.00126  -0.00126   0.82207   0.00077   0.00077   0.00000   0.00000   0.00000   0.00000 ...
   0.00000   0.00000  -0.00126  -2.24277  -0.00126   0.00077   0.82207   0.00077   0.00000   0.00000   0.00000   0.00000 ...
   0.00000   0.00000  -0.00126  -0.00126  -2.24277   0.00077   0.00077   0.82207   0.00000   0.00000   0.00000   0.00000 ...
   0.00000   0.00000   0.82207   0.00077   0.00077   0.37023  -0.00047  -0.00047   0.00000   0.00000   0.00000   0.00000 ...
   0.00000   0.00000   0.00077   0.82207   0.00077  -0.00047   0.37023  -0.00047   0.00000   0.00000   0.00000   0.00000 ...
   0.00000   0.00000   0.00077   0.00077   0.82207  -0.00047  -0.00047   0.37023   0.00000   0.00000   0.00000   0.00000 ...
  -0.00171   0.00034   0.00000   0.00000   0.00000   0.00000   0.00000   0.00000  -0.91166  -0.00102   0.00094  -0.00102 ...
  -0.00171   0.00034   0.00000   0.00000   0.00000   0.00000   0.00000   0.00000  -0.00102  -0.91166  -0.00047  -0.00102 ...
   0.00000   0.00000   0.00000   0.00000   0.00000   0.00000   0.00000   0.00000   0.00094  -0.00047  -0.91294  -0.00047 ...
  -0.00171   0.00034   0.00000   0.00000   0.00000   0.00000   0.00000   0.00000  -0.00102  -0.00102  -0.00047  -0.91166 ...
   ...  only 12  components have been written...
 Atom #  1 - Spin component 2
  -2.32769   0.37500   0.00000   0.00000   0.00000   0.00000   0.00000   0.00000  -0.00223  -0.00223   0.00000  -0.00223 ...
   0.37500   0.04452   0.00000   0.00000   0.00000   0.00000   0.00000   0.00000   0.00044   0.00044   0.00000   0.00044 ...
   0.00000   0.00000  -2.23959  -0.00165  -0.00165   0.82028   0.00099   0.00099   0.00000   0.00000   0.00000   0.00000 ...
   0.00000   0.00000  -0.00165  -2.23959  -0.00165   0.00099   0.82028   0.00099   0.00000   0.00000   0.00000   0.00000 ...
   0.00000   0.00000  -0.00165  -0.00165  -2.23959   0.00099   0.00099   0.82028   0.00000   0.00000   0.00000   0.00000 ...
   0.00000   0.00000   0.82028   0.00099   0.00099   0.37129  -0.00060  -0.00060   0.00000   0.00000   0.00000   0.00000 ...
   0.00000   0.00000   0.00099   0.82028   0.00099  -0.00060   0.37129  -0.00060   0.00000   0.00000   0.00000   0.00000 ...
   0.00000   0.00000   0.00099   0.00099   0.82028  -0.00060  -0.00060   0.37129   0.00000   0.00000   0.00000   0.00000 ...
  -0.00223   0.00044   0.00000   0.00000   0.00000   0.00000   0.00000   0.00000  -0.90890  -0.00114   0.00137  -0.00114 ...
  -0.00223   0.00044   0.00000   0.00000   0.00000   0.00000   0.00000   0.00000  -0.00114  -0.90890  -0.00068  -0.00114 ...
   0.00000   0.00000   0.00000   0.00000   0.00000   0.00000   0.00000   0.00000   0.00137  -0.00068  -0.90999  -0.00068 ...
  -0.00223   0.00044   0.00000   0.00000   0.00000   0.00000   0.00000   0.00000  -0.00114  -0.00114  -0.00068  -0.90890 ...
   ...  only 12  components have been written...
 Atom #  4 - Spin component 1
   0.61338  -1.75556   0.00001   0.00001   0.00001  -0.00008  -0.00008  -0.00008
  -1.75556   5.08508  -0.00003  -0.00003  -0.00003   0.00021   0.00021   0.00021
   0.00001  -0.00003  -0.29399  -0.00002  -0.00002   0.88825   0.00011   0.00011
   0.00001  -0.00003  -0.00002  -0.29399  -0.00002   0.00011   0.88825   0.00011
   0.00001  -0.00003  -0.00002  -0.00002  -0.29399   0.00011   0.00011   0.88825
  -0.00008   0.00021   0.88825   0.00011   0.00011   0.11936  -0.00056  -0.00056
  -0.00008   0.00021   0.00011   0.88825   0.00011  -0.00056   0.11936  -0.00056
  -0.00008   0.00021   0.00011   0.00011   0.88825  -0.00056  -0.00056   0.11936
 Atom #  4 - Spin component 2
   0.61338  -1.75556  -0.00001  -0.00001  -0.00001   0.00008   0.00008   0.00008
  -1.75556   5.08508   0.00003   0.00003   0.00003  -0.00021  -0.00021  -0.00021
  -0.00001   0.00003  -0.29399  -0.00002  -0.00002   0.88825   0.00011   0.00011
  -0.00001   0.00003  -0.00002  -0.29399  -0.00002   0.00011   0.88825   0.00011
  -0.00001   0.00003  -0.00002  -0.00002  -0.29399   0.00011   0.00011   0.88825
   0.00008  -0.00021   0.88825   0.00011   0.00011   0.11936  -0.00056  -0.00056
   0.00008  -0.00021   0.00011   0.88825   0.00011  -0.00056   0.11936  -0.00056
   0.00008  -0.00021   0.00011   0.00011   0.88825  -0.00056  -0.00056   0.11936
 
 
 Augmentation waves occupancies Rhoij:
 Atom #  1 - Spin component 1
   0.97692  -0.16694   0.00000   0.00000   0.00000   0.00000   0.00000   0.00000  -0.00015  -0.00015   0.00000  -0.00015 ...
  -0.16694   0.45970   0.00000   0.00000   0.00000   0.00000   0.00000   0.00000  -0.00382  -0.00382   0.00000  -0.00382 ...
   0.00000   0.00000   1.06705   0.00002   0.00002   0.13572   0.00008   0.00008   0.00000   0.00000   0.00000   0.00000 ...
   0.00000   0.00000   0.00002   1.06705   0.00002   0.00008   0.13572   0.00008   0.00000   0.00000   0.00000   0.00000 ...
   0.00000   0.00000   0.00002   0.00002   1.06705   0.00008   0.00008   0.13572   0.00000   0.00000   0.00000   0.00000 ...
   0.00000   0.00000   0.13572   0.00008   0.00008   0.02463   0.00002   0.00002   0.00000   0.00000   0.00000   0.00000 ...
   0.00000   0.00000   0.00008   0.13572   0.00008   0.00002   0.02463   0.00002   0.00000   0.00000   0.00000   0.00000 ...
   0.00000   0.00000   0.00008   0.00008   0.13572   0.00002   0.00002   0.02463   0.00000   0.00000   0.00000   0.00000 ...
  -0.00015  -0.00382   0.00000   0.00000   0.00000   0.00000   0.00000   0.00000   1.15459  -0.02175   0.02665  -0.02175 ...
  -0.00015  -0.00382   0.00000   0.00000   0.00000   0.00000   0.00000   0.00000  -0.02175   1.15459  -0.01332  -0.02175 ...
   0.00000   0.00000   0.00000   0.00000   0.00000   0.00000   0.00000   0.00000   0.02665  -0.01332   1.05899  -0.01332 ...
  -0.00015  -0.00382   0.00000   0.00000   0.00000   0.00000   0.00000   0.00000  -0.02175  -0.02175  -0.01332   1.15459 ...
   ...  only 12  components have been written...
 Atom #  1 - Spin component 2
   0.97685  -0.16744   0.00000   0.00000   0.00000   0.00000   0.00000   0.00000  -0.00012  -0.00012   0.00000  -0.00012 ...
  -0.16744   0.45874   0.00000   0.00000   0.00000   0.00000   0.00000   0.00000  -0.00094  -0.00094   0.00000  -0.00094 ...
   0.00000   0.00000   1.06702   0.00003   0.00003   0.13561   0.00012   0.00012   0.00000   0.00000   0.00000   0.00000 ...
   0.00000   0.00000   0.00003   1.06702   0.00003   0.00012   0.13561   0.00012   0.00000   0.00000   0.00000   0.00000 ...
   0.00000   0.00000   0.00003   0.00003   1.06702   0.00012   0.00012   0.13561   0.00000   0.00000   0.00000   0.00000 ...
   0.00000   0.00000   0.13561   0.00012   0.00012   0.02455   0.00004   0.00004   0.00000   0.00000   0.00000   0.00000 ...
   0.00000   0.00000   0.00012   0.13561   0.00012   0.00004   0.02455   0.00004   0.00000   0.00000   0.00000   0.00000 ...
   0.00000   0.00000   0.00012   0.00012   0.13561   0.00004   0.00004   0.02455   0.00000   0.00000   0.00000   0.00000 ...
  -0.00012  -0.00094   0.00000   0.00000   0.00000   0.00000   0.00000   0.00000   1.11005  -0.01403   0.00062  -0.01403 ...
  -0.00012  -0.00094   0.00000   0.00000   0.00000   0.00000   0.00000   0.00000  -0.01403   1.11005  -0.00031  -0.01403 ...
   0.00000   0.00000   0.00000   0.00000   0.00000   0.00000   0.00000   0.00000   0.00062  -0.00031   1.01135  -0.00031 ...
  -0.00012  -0.00094   0.00000   0.00000   0.00000   0.00000   0.00000   0.00000  -0.01403  -0.01403  -0.00031   1.11005 ...
   ...  only 12  components have been written...
 Atom #  4 - Spin component 1
   1.01158   0.01395  -0.00075  -0.00075  -0.00075   0.00003   0.00003   0.00003
   0.01395   0.00120   0.00013   0.00013   0.00013  -0.00000  -0.00000  -0.00000
  -0.00075   0.00013   1.06831  -0.00319  -0.00319   0.05052  -0.00033  -0.00033
  -0.00075   0.00013  -0.00319   1.06831  -0.00319  -0.00033   0.05052  -0.00033
  -0.00075   0.00013  -0.00319  -0.00319   1.06831  -0.00033  -0.00033   0.05052
   0.00003  -0.00000   0.05052  -0.00033  -0.00033   0.00287  -0.00001  -0.00001
   0.00003  -0.00000  -0.00033   0.05052  -0.00033  -0.00001   0.00287  -0.00001
   0.00003  -0.00000  -0.00033  -0.00033   0.05052  -0.00001  -0.00001   0.00287
 Atom #  4 - Spin component 2
   1.01158   0.01395   0.00075   0.00075   0.00075  -0.00003  -0.00003  -0.00003
   0.01395   0.00120  -0.00013  -0.00013  -0.00013   0.00000   0.00000   0.00000
   0.00075  -0.00013   1.06831  -0.00319  -0.00319   0.05052  -0.00033  -0.00033
   0.00075  -0.00013  -0.00319   1.06831  -0.00319  -0.00033   0.05052  -0.00033
   0.00075  -0.00013  -0.00319  -0.00319   1.06831  -0.00033  -0.00033   0.05052
  -0.00003   0.00000   0.05052  -0.00033  -0.00033   0.00287  -0.00001  -0.00001
  -0.00003   0.00000  -0.00033   0.05052  -0.00033  -0.00001   0.00287  -0.00001
  -0.00003   0.00000  -0.00033  -0.00033   0.05052  -0.00001  -0.00001   0.00287
 
 "PAW+U" part of augmentation waves occupancies Rhoij:
 Atom #  1 - L=2 ONLY - Spin component 1
   1.15459  -0.02175   0.02665  -0.02175   0.00000   0.42920  -0.00883   0.01032  -0.00883   0.00000
  -0.02175   1.15459  -0.01332  -0.02175   0.02308  -0.00883   0.42920  -0.00516  -0.00883   0.00894
   0.02665  -0.01332   1.05899  -0.01332   0.00000   0.01203  -0.00602   0.39159  -0.00602   0.00000
  -0.02175  -0.02175  -0.01332   1.15459  -0.02308  -0.00883  -0.00883  -0.00516   0.42920  -0.00894
   0.00000   0.02308   0.00000  -0.02308   1.05899   0.00000   0.01042   0.00000  -0.01042   0.39159
   0.42920  -0.00883   0.01203  -0.00883   0.00000   0.16412  -0.00362   0.00472  -0.00362   0.00000
  -0.00883   0.42920  -0.00602  -0.00883   0.01042  -0.00362   0.16412  -0.00236  -0.00362   0.00409
   0.01032  -0.00516   0.39159  -0.00516   0.00000   0.00472  -0.00236   0.15180  -0.00236   0.00000
  -0.00883  -0.00883  -0.00602   0.42920  -0.01042  -0.00362  -0.00362  -0.00236   0.16412  -0.00409
   0.00000   0.00894   0.00000  -0.00894   0.39159   0.00000   0.00409   0.00000  -0.00409   0.15180
 Atom #  1 - L=2 ONLY - Spin component 2
   1.11005  -0.01403   0.00062  -0.01403   0.00000   0.40884  -0.00551  -0.00022  -0.00551   0.00000
  -0.01403   1.11005  -0.00031  -0.01403   0.00054  -0.00551   0.40884   0.00011  -0.00551  -0.00019
   0.00062  -0.00031   1.01135  -0.00031   0.00000  -0.00043   0.00021   0.37350   0.00021   0.00000
  -0.01403  -0.01403  -0.00031   1.11005  -0.00054  -0.00551  -0.00551   0.00011   0.40884   0.00019
   0.00000   0.00054   0.00000  -0.00054   1.01135   0.00000  -0.00037   0.00000   0.00037   0.37350
   0.40884  -0.00551  -0.00043  -0.00551   0.00000   0.15480  -0.00219  -0.00031  -0.00219   0.00000
  -0.00551   0.40884   0.00021  -0.00551  -0.00037  -0.00219   0.15480   0.00016  -0.00219  -0.00027
  -0.00022   0.00011   0.37350   0.00011   0.00000  -0.00031   0.00016   0.14488   0.00016   0.00000
  -0.00551  -0.00551   0.00021   0.40884   0.00037  -0.00219  -0.00219   0.00016   0.15480   0.00027
   0.00000  -0.00019   0.00000   0.00019   0.37350   0.00000  -0.00027   0.00000   0.00027   0.14488
 Atom #  2 - L=2 ONLY - Spin component 1
   1.11005  -0.01403   0.00062  -0.01403   0.00000   0.40884  -0.00551  -0.00022  -0.00551   0.00000
  -0.01403   1.11005  -0.00031  -0.01403   0.00054  -0.00551   0.40884   0.00011  -0.00551  -0.00019
   0.00062  -0.00031   1.01135  -0.00031   0.00000  -0.00043   0.00021   0.37350   0.00021   0.00000
  -0.01403  -0.01403  -0.00031   1.11005  -0.00054  -0.00551  -0.00551   0.00011   0.40884   0.00019
   0.00000   0.00054   0.00000  -0.00054   1.01135   0.00000  -0.00037   0.00000   0.00037   0.37350
   0.40884  -0.00551  -0.00043  -0.00551   0.00000   0.15480  -0.00219  -0.00031  -0.00219   0.00000
  -0.00551   0.40884   0.00021  -0.00551  -0.00037  -0.00219   0.15480   0.00016  -0.00219  -0.00027
  -0.00022   0.00011   0.37350   0.00011   0.00000  -0.00031   0.00016   0.14488   0.00016   0.00000
  -0.00551  -0.00551   0.00021   0.40884   0.00037  -0.00219  -0.00219   0.00016   0.15480   0.00027
   0.00000  -0.00019   0.00000   0.00019   0.37350   0.00000  -0.00027   0.00000   0.00027   0.14488
 Atom #  2 - L=2 ONLY - Spin component 2
   1.15458  -0.02175   0.02665  -0.02175   0.00000   0.42920  -0.00883   0.01032  -0.00883   0.00000
  -0.02175   1.15458  -0.01332  -0.02175   0.02308  -0.00883   0.42920  -0.00516  -0.00883   0.00894
   0.02665  -0.01332   1.05899  -0.01332   0.00000   0.01203  -0.00602   0.39159  -0.00602   0.00000
  -0.02175  -0.02175  -0.01332   1.15458  -0.02308  -0.00883  -0.00883  -0.00516   0.42920  -0.00894
   0.00000   0.02308   0.00000  -0.02308   1.05899   0.00000   0.01042   0.00000  -0.01042   0.39159
   0.42920  -0.00883   0.01203  -0.00883   0.00000   0.16412  -0.00362   0.00472  -0.00362   0.00000
  -0.00883   0.42920  -0.00602  -0.00883   0.01042  -0.00362   0.16412  -0.00236  -0.00362   0.00409
   0.01032  -0.00516   0.39159  -0.00516   0.00000   0.00472  -0.00236   0.15180  -0.00236   0.00000
  -0.00883  -0.00883  -0.00602   0.42920  -0.01042  -0.00362  -0.00362  -0.00236   0.16412  -0.00409
   0.00000   0.00894   0.00000  -0.00894   0.39159   0.00000   0.00409   0.00000  -0.00409   0.15180
 Atom #  3 - L=1 ONLY - Spin component 1
   1.06831  -0.00319  -0.00319   0.05052  -0.00033  -0.00033
  -0.00319   1.06831  -0.00319  -0.00033   0.05052  -0.00033
  -0.00319  -0.00319   1.06831  -0.00033  -0.00033   0.05052
   0.05052  -0.00033  -0.00033   0.00287  -0.00001  -0.00001
  -0.00033   0.05052  -0.00033  -0.00001   0.00287  -0.00001
  -0.00033  -0.00033   0.05052  -0.00001  -0.00001   0.00287
 Atom #  3 - L=1 ONLY - Spin component 2
   1.06831  -0.00319  -0.00319   0.05052  -0.00033  -0.00033
  -0.00319   1.06831  -0.00319  -0.00033   0.05052  -0.00033
  -0.00319  -0.00319   1.06831  -0.00033  -0.00033   0.05052
   0.05052  -0.00033  -0.00033   0.00287  -0.00001  -0.00001
  -0.00033   0.05052  -0.00033  -0.00001   0.00287  -0.00001
  -0.00033  -0.00033   0.05052  -0.00001  -0.00001   0.00287
 Atom #  4 - L=1 ONLY - Spin component 1
   1.06831  -0.00319  -0.00319   0.05052  -0.00033  -0.00033
  -0.00319   1.06831  -0.00319  -0.00033   0.05052  -0.00033
  -0.00319  -0.00319   1.06831  -0.00033  -0.00033   0.05052
   0.05052  -0.00033  -0.00033   0.00287  -0.00001  -0.00001
  -0.00033   0.05052  -0.00033  -0.00001   0.00287  -0.00001
  -0.00033  -0.00033   0.05052  -0.00001  -0.00001   0.00287
 Atom #  4 - L=1 ONLY - Spin component 2
   1.06831  -0.00319  -0.00319   0.05052  -0.00033  -0.00033
  -0.00319   1.06831  -0.00319  -0.00033   0.05052  -0.00033
  -0.00319  -0.00319   1.06831  -0.00033  -0.00033   0.05052
   0.05052  -0.00033  -0.00033   0.00287  -0.00001  -0.00001
  -0.00033   0.05052  -0.00033  -0.00001   0.00287  -0.00001
  -0.00033  -0.00033   0.05052  -0.00001  -0.00001   0.00287
 
 ---------- DFT+U DATA --------------------------------------------------- 
 
 ====== For Atom     1, occupations for correlated orbitals. lpawu =   2
 
 Atom   1. Occ. for lpawu and for spin  1 =   4.40752
 Atom   1. Occ. for lpawu and for spin  2 =   4.23050
 => On atom   1,  local Mag. for lpawu is       -0.177024
 
 == Occupation matrix for correlated orbitals:
 
 Occupation matrix for spin  1
     0.91141   -0.01694    0.02065   -0.01694    0.00000
    -0.01694    0.91141   -0.01033   -0.01694    0.01789
     0.02065   -0.01033    0.83665   -0.01033    0.00000
    -0.01694   -0.01694   -0.01033    0.91141   -0.01789
     0.00000    0.01789    0.00000   -0.01789    0.83665
 
 
 Occupation matrix for spin  2
     0.87739   -0.01098    0.00066   -0.01098    0.00000
    -0.01098    0.87739   -0.00033   -0.01098    0.00057
     0.00066   -0.00033    0.79916   -0.00033    0.00000
    -0.01098   -0.01098   -0.00033    0.87739   -0.00057
     0.00000    0.00057    0.00000   -0.00057    0.79916
 
 
 ====== For Atom     2, occupations for correlated orbitals. lpawu =   2
 
 Atom   2. Occ. for lpawu and for spin  1 =   4.23050
 Atom   2. Occ. for lpawu and for spin  2 =   4.40752
 => On atom   2,  local Mag. for lpawu is        0.177024
 
 == Occupation matrix for correlated orbitals:
 
 Occupation matrix for spin  1
     0.87739   -0.01098    0.00066   -0.01098    0.00000
    -0.01098    0.87739   -0.00033   -0.01098    0.00057
     0.00066   -0.00033    0.79916   -0.00033    0.00000
    -0.01098   -0.01098   -0.00033    0.87739   -0.00057
     0.00000    0.00057    0.00000   -0.00057    0.79916
 
 
 Occupation matrix for spin  2
     0.91141   -0.01694    0.02065   -0.01694    0.00000
    -0.01694    0.91141   -0.01033   -0.01694    0.01789
     0.02065   -0.01033    0.83665   -0.01033    0.00000
    -0.01694   -0.01694   -0.01033    0.91141   -0.01789
     0.00000    0.01789    0.00000   -0.01789    0.83665
 
 
 ====== For Atom     3, occupations for correlated orbitals. lpawu =   1
 
 Atom   3. Occ. for lpawu and for spin  1 =   1.55467
 Atom   3. Occ. for lpawu and for spin  2 =   1.55467
 => On atom   3,  local Mag. for lpawu is       -0.000000
 
 == Occupation matrix for correlated orbitals:
 
 Occupation matrix for spin  1
     0.51822   -0.00081   -0.00081
    -0.00081    0.51822   -0.00081
    -0.00081   -0.00081    0.51822
 
 
 Occupation matrix for spin  2
     0.51822   -0.00081   -0.00081
    -0.00081    0.51822   -0.00081
    -0.00081   -0.00081    0.51822
 
 
 ====== For Atom     4, occupations for correlated orbitals. lpawu =   1
 
 Atom   4. Occ. for lpawu and for spin  1 =   1.55467
 Atom   4. Occ. for lpawu and for spin  2 =   1.55467
 => On atom   4,  local Mag. for lpawu is       -0.000000
 
 == Occupation matrix for correlated orbitals:
 
 Occupation matrix for spin  1
     0.51822   -0.00081   -0.00081
    -0.00081    0.51822   -0.00081
    -0.00081   -0.00081    0.51822
 
 
 Occupation matrix for spin  2
     0.51822   -0.00081   -0.00081
    -0.00081    0.51822   -0.00081
    -0.00081   -0.00081    0.51822
 
 
 
================================================================================
 
 ----iterations are completed or convergence reached----
 
 Mean square residual over all n,k,spin=   75.431E-15; max=  14.364E-12
   0.1250  0.1250  0.1250    1  4.79377E-12 kpt; spin; max resid(k); each band:
  4.63E-16 1.70E-15 2.31E-14 2.38E-14 3.49E-14 3.49E-14 3.56E-14 3.56E-14
  4.09E-15 1.21E-15 7.96E-15 8.71E-15 8.63E-15 1.96E-14 1.96E-14 1.26E-15
  3.73E-15 3.11E-15 1.99E-14 1.90E-14 6.20E-14 6.95E-14 4.79E-12 2.37E-12
  2.69E-12 1.75E-14
   0.3750  0.1250  0.1250    1  3.35410E-14 kpt; spin; max resid(k); each band:
  4.46E-16 1.80E-15 2.67E-14 2.81E-14 3.35E-14 3.29E-14 3.11E-14 3.15E-14
  3.03E-15 1.51E-15 6.15E-15 1.25E-14 3.68E-15 9.43E-15 1.09E-14 6.06E-15
  1.46E-14 2.61E-14 1.92E-14 2.53E-14 1.74E-14 1.44E-14 1.16E-14 8.01E-15
  6.17E-15 2.08E-14
  -0.3750  0.1250  0.1250    1  3.81214E-14 kpt; spin; max resid(k); each band:
  6.19E-16 1.99E-15 3.18E-14 3.21E-14 2.15E-14 2.18E-14 3.71E-14 3.81E-14
  1.88E-15 1.87E-15 5.14E-15 3.93E-15 4.76E-15 3.45E-14 6.43E-15 1.17E-14
  8.64E-15 2.11E-14 3.40E-14 1.30E-14 1.30E-14 2.21E-14 1.53E-14 2.21E-14
  1.62E-14 2.01E-14
  -0.1250  0.1250  0.1250    1  3.81321E-14 kpt; spin; max resid(k); each band:
  5.24E-16 1.81E-15 3.81E-14 3.15E-14 3.40E-14 2.39E-14 3.59E-15 3.58E-15
  3.22E-15 1.34E-15 5.19E-15 6.13E-15 4.40E-15 1.88E-14 1.06E-14 1.39E-14
  2.13E-14 1.39E-14 2.38E-14 1.93E-14 2.16E-14 1.74E-14 1.87E-14 2.19E-14
  2.43E-14 1.49E-14
   0.3750  0.3750  0.1250    1  3.74107E-14 kpt; spin; max resid(k); each band:
  4.58E-16 1.86E-15 3.00E-14 2.33E-14 3.59E-14 2.53E-14 3.65E-14 3.74E-14
  2.83E-15 1.74E-15 7.57E-15 7.56E-15 2.11E-14 1.59E-14 1.94E-14 2.74E-15
  1.03E-14 1.71E-14 9.06E-15 2.09E-14 2.59E-14 2.37E-14 2.31E-14 1.95E-14
  6.70E-15 1.25E-14
  -0.3750  0.3750  0.1250    1  3.48136E-14 kpt; spin; max resid(k); each band:
  4.42E-16 1.83E-15 2.50E-14 3.48E-14 9.73E-15 1.09E-14 3.14E-14 3.19E-14
  1.95E-15 1.73E-15 6.52E-15 6.14E-15 2.99E-15 1.73E-14 6.72E-15 7.91E-15
  1.14E-14 2.68E-14 2.04E-14 2.49E-14 2.43E-14 1.91E-14 1.82E-14 1.64E-14
  2.07E-14 1.84E-14
  -0.1250  0.3750  0.1250    1  3.80674E-14 kpt; spin; max resid(k); each band:
  5.12E-16 1.89E-15 3.50E-14 3.81E-14 3.22E-14 3.58E-14 3.45E-14 3.16E-14
  2.13E-15 1.70E-15 6.17E-15 5.21E-15 4.10E-15 1.71E-14 1.76E-14 1.93E-14
  1.40E-14 1.63E-14 2.71E-14 2.09E-14 2.66E-14 2.08E-14 1.68E-14 2.26E-14
  1.76E-14 2.13E-14
  -0.3750 -0.3750  0.1250    1  3.99255E-14 kpt; spin; max resid(k); each band:
  2.48E-15 3.76E-15 3.03E-14 3.12E-14 3.84E-14 3.71E-14 3.99E-14 2.72E-14
  1.76E-15 1.81E-15 4.41E-15 9.29E-16 2.31E-14 1.88E-14 3.15E-14 3.27E-15
  8.07E-15 1.80E-15 5.07E-15 3.57E-14 1.67E-14 2.05E-14 2.17E-14 2.59E-14
  1.90E-14 1.81E-14
   0.3750  0.3750  0.3750    1  2.27153E-13 kpt; spin; max resid(k); each band:
  1.08E-15 2.42E-15 2.38E-14 3.56E-14 3.56E-14 2.54E-14 3.63E-14 3.63E-14
  3.30E-15 2.22E-15 4.89E-15 3.23E-15 1.72E-14 1.72E-14 1.12E-14 1.12E-14
  7.70E-15 7.70E-15 1.14E-14 1.93E-14 1.93E-14 1.58E-14 2.22E-14 1.94E-14
  2.38E-14 2.27E-13
  -0.3750  0.3750  0.3750    1  3.90903E-14 kpt; spin; max resid(k); each band:
  4.89E-16 1.91E-15 2.50E-14 3.59E-14 2.78E-14 3.91E-14 3.49E-14 3.55E-14
  2.43E-15 2.15E-15 8.06E-15 7.40E-15 1.19E-14 1.96E-14 1.22E-14 1.42E-14
  1.35E-14 1.79E-14 8.57E-15 1.89E-14 1.84E-14 1.30E-14 2.26E-14 2.29E-14
  1.38E-14 1.48E-14
   0.1250  0.1250  0.1250    2  1.43636E-11 kpt; spin; max resid(k); each band:
  3.48E-15 1.65E-15 2.08E-14 2.15E-14 4.30E-14 4.30E-14 4.38E-14 4.38E-14
  5.27E-16 1.85E-16 8.93E-16 7.17E-15 7.19E-15 1.51E-14 1.51E-14 3.16E-16
  3.31E-15 3.67E-15 1.95E-14 1.74E-14 2.42E-14 3.84E-13 6.01E-13 4.72E-12
  1.44E-11 2.04E-14
   0.3750  0.1250  0.1250    2  3.88401E-14 kpt; spin; max resid(k); each band:
  4.24E-15 1.69E-15 2.81E-14 3.06E-14 3.88E-14 3.78E-14 3.84E-14 3.88E-14
  4.27E-16 3.75E-16 1.45E-15 9.62E-15 3.15E-15 8.76E-15 8.35E-15 5.24E-15
  1.39E-14 2.21E-14 1.79E-14 2.85E-14 1.50E-14 1.66E-14 1.26E-14 8.03E-15
  6.91E-15 2.43E-14
  -0.3750  0.1250  0.1250    2  4.71068E-14 kpt; spin; max resid(k); each band:
  4.60E-15 1.86E-15 3.96E-14 3.99E-14 1.94E-14 1.98E-14 4.59E-14 4.71E-14
  4.44E-16 5.70E-16 3.32E-15 2.91E-15 2.77E-15 3.72E-14 4.95E-15 8.82E-15
  8.81E-15 1.78E-14 3.88E-14 1.63E-14 1.37E-14 1.97E-14 1.51E-14 2.33E-14
  1.58E-14 2.09E-14
  -0.1250  0.1250  0.1250    2  4.74244E-14 kpt; spin; max resid(k); each band:
  4.09E-15 1.68E-15 4.74E-14 3.28E-14 3.75E-14 2.17E-14 4.45E-15 4.43E-15
  3.60E-16 3.85E-16 1.28E-15 5.98E-15 3.31E-15 2.02E-14 1.04E-14 1.45E-14
  1.81E-14 1.36E-14 2.48E-14 1.55E-14 2.58E-14 1.46E-14 1.56E-14 2.69E-14
  2.39E-14 1.70E-14
   0.3750  0.3750  0.1250    2  4.62136E-14 kpt; spin; max resid(k); each band:
  4.43E-15 1.76E-15 3.40E-14 2.14E-14 4.35E-14 2.31E-14 4.50E-14 4.62E-14
  3.35E-16 4.34E-16 3.73E-15 4.49E-15 1.90E-14 1.70E-14 1.97E-14 2.56E-15
  8.90E-15 2.19E-14 9.43E-15 1.98E-14 2.03E-14 2.54E-14 2.67E-14 1.64E-14
  8.44E-15 7.49E-15
  -0.3750  0.3750  0.1250    2  3.73730E-14 kpt; spin; max resid(k); each band:
  4.50E-15 1.70E-15 3.18E-14 3.74E-14 1.25E-14 9.80E-15 3.38E-14 3.50E-14
  4.80E-16 5.39E-16 4.18E-15 3.69E-15 2.54E-15 1.74E-14 7.60E-15 7.49E-15
  1.14E-14 2.87E-14 2.33E-14 2.19E-14 2.72E-14 1.95E-14 2.05E-14 1.86E-14
  1.79E-14 1.69E-14
  -0.1250  0.3750  0.1250    2  4.76574E-14 kpt; spin; max resid(k); each band:
  4.51E-15 1.77E-15 4.30E-14 4.77E-14 3.23E-14 4.19E-14 4.05E-14 3.36E-14
  4.18E-16 6.95E-16 4.27E-15 3.51E-15 4.46E-15 1.35E-14 1.92E-14 1.70E-14
  1.45E-14 2.02E-14 3.12E-14 2.08E-14 2.94E-14 2.22E-14 1.47E-14 2.47E-14
  2.03E-14 1.88E-14
  -0.3750 -0.3750  0.1250    2  4.94628E-14 kpt; spin; max resid(k); each band:
  6.61E-15 3.87E-15 3.39E-14 3.56E-14 4.73E-14 4.48E-14 4.95E-14 2.66E-14
  2.66E-16 6.95E-16 1.43E-15 5.88E-16 2.66E-14 1.97E-14 3.13E-14 2.77E-15
  7.52E-15 1.90E-15 4.25E-15 3.90E-14 1.83E-14 2.20E-14 1.77E-14 2.16E-14
  1.83E-14 2.36E-14
   0.3750  0.3750  0.3750    2  2.07714E-13 kpt; spin; max resid(k); each band:
  4.65E-15 2.51E-15 2.14E-14 4.38E-14 4.38E-14 2.28E-14 4.46E-14 4.46E-14
  4.04E-16 2.55E-16 1.85E-15 6.06E-16 1.53E-14 1.53E-14 8.35E-15 8.36E-15
  7.02E-15 7.02E-15 1.51E-14 1.69E-14 1.69E-14 1.82E-14 1.97E-14 2.34E-14
  2.08E-13 1.03E-13
  -0.3750  0.3750  0.3750    2  4.72488E-14 kpt; spin; max resid(k); each band:
  4.57E-15 1.83E-15 2.29E-14 4.34E-14 2.93E-14 4.72E-14 4.31E-14 4.39E-14
  4.35E-16 3.55E-16 3.74E-15 4.04E-15 1.20E-14 1.60E-14 1.42E-14 1.45E-14
  1.50E-14 1.99E-14 1.01E-14 1.67E-14 1.80E-14 1.36E-14 1.76E-14 2.50E-14
  1.45E-14 1.85E-14
 reduced coordinates (array xred) for    4 atoms
       0.000000000000      0.000000000000      0.000000000000
       0.500000000000      0.500000000000      0.500000000000
       0.250000000000      0.250000000000      0.250000000000
       0.750000000000      0.750000000000      0.750000000000
 rms dE/dt=  1.6290E-06; max dE/dt=  2.3038E-06; dE/dt below (all hartree)
    1       0.000000000000      0.000000000000      0.000000000000
    2       0.000000000000      0.000000000000      0.000000000000
    3      -0.000002303818     -0.000002303818     -0.000002303818
    4       0.000002303818      0.000002303818      0.000002303818
 
 cartesian coordinates (angstrom) at end:
    1      0.00000000000000     0.00000000000000     0.00000000000000
    2      4.16991640368920     4.16991640368920     4.16991640368920
    3      2.08495820184460     2.08495820184460     2.08495820184460
    4      6.25487460553380     6.25487460553380     6.25487460553380
 
 cartesian forces (hartree/bohr) at end:
    1      0.00000000000000     0.00000000000000     0.00000000000000
    2      0.00000000000000     0.00000000000000     0.00000000000000
    3      0.00000014618132     0.00000014618132     0.00000014618132
    4     -0.00000014618132    -0.00000014618132    -0.00000014618132
 frms,max,avg= 1.0336580E-07 1.4618132E-07   0.000E+00  0.000E+00  0.000E+00 h/b
 
 cartesian forces (eV/Angstrom) at end:
    1      0.00000000000000     0.00000000000000     0.00000000000000
    2      0.00000000000000     0.00000000000000     0.00000000000000
    3      0.00000751694499     0.00000751694499     0.00000751694499
    4     -0.00000751694499    -0.00000751694499    -0.00000751694499
 frms,max,avg= 5.3152828E-06 7.5169450E-06   0.000E+00  0.000E+00  0.000E+00 e/A
 length scales=  7.880000000000  7.880000000000  7.880000000000 bohr
              =  4.169916403689  4.169916403689  4.169916403689 angstroms
 prteigrs : about to open file tlruj_1.o_EIG
 Fermi (or HOMO) energy (hartree) =   0.40807   Average Vxc (hartree)=  -0.46908
 Eigenvalues (hartree) for nkpt=  10  k points, SPIN UP:
 kpt#   1, nband= 26, wtk=  0.03125, kpt=  0.1250  0.1250  0.1250 (reduced coord)
  -4.14181   -4.13654   -2.37153   -2.33908   -2.33275   -2.33275   -2.30978   -2.30978
  -0.40323   -0.35602    0.07028    0.21119    0.21119    0.22697    0.22697    0.25290
   0.26180    0.26180    0.31951    0.31951    0.37518    0.38782    0.38782    0.39724
   0.40072    0.43695
 kpt#   2, nband= 26, wtk=  0.09375, kpt=  0.3750  0.1250  0.1250 (reduced coord)
  -4.14186   -4.13660   -2.39065   -2.37398   -2.36425   -2.34087   -2.32581   -2.31059
  -0.38100   -0.35280    0.10567    0.14326    0.15643    0.21653    0.21689    0.22033
   0.22304    0.28330    0.29019    0.29833    0.31915    0.31956    0.32784    0.36746
   0.37392    0.40462
 kpt#   3, nband= 26, wtk=  0.09375, kpt= -0.3750  0.1250  0.1250 (reduced coord)
  -4.14217   -4.13690   -2.40659   -2.39326   -2.38333   -2.37258   -2.35952   -2.32626
  -0.35292   -0.35123    0.08118    0.10513    0.17801    0.18168    0.18740    0.19837
   0.20106    0.24314    0.24380    0.25101    0.25791    0.26896    0.28895    0.34854
   0.36810    0.39168
 kpt#   4, nband= 26, wtk=  0.09375, kpt= -0.1250  0.1250  0.1250 (reduced coord)
  -4.14199   -4.13673   -2.40434   -2.38473   -2.35833   -2.33769   -2.32977   -2.32298
  -0.38401   -0.34950    0.10287    0.14288    0.16898    0.19067    0.20284    0.21867
   0.24445    0.25122    0.25379    0.25467    0.30846    0.32446    0.35757    0.37317
   0.39095    0.40214
 kpt#   5, nband= 26, wtk=  0.09375, kpt=  0.3750  0.3750  0.1250 (reduced coord)
  -4.14215   -4.13688   -2.41973   -2.41541   -2.35879   -2.35285   -2.34918   -2.32021
  -0.37755   -0.35691    0.10365    0.11885    0.16043    0.18601    0.19096    0.19390
   0.20126    0.22426    0.23191    0.26398    0.27969    0.29635    0.34775    0.38005
   0.39301    0.39855
 kpt#   6, nband= 26, wtk=  0.18750, kpt= -0.3750  0.3750  0.1250 (reduced coord)
  -4.14216   -4.13690   -2.39906   -2.39517   -2.37558   -2.36991   -2.35116   -2.34118
  -0.35425   -0.34971    0.09221    0.10255    0.16882    0.17437    0.18914    0.20023
   0.20567    0.21861    0.25957    0.26197    0.26905    0.27224    0.32209    0.32388
   0.37446    0.38861
 kpt#   7, nband= 26, wtk=  0.18750, kpt= -0.1250  0.3750  0.1250 (reduced coord)
  -4.14230   -4.13704   -2.41716   -2.40321   -2.39665   -2.38502   -2.35745   -2.33320
  -0.35769   -0.34723    0.09754    0.12994    0.14716    0.14913    0.16842    0.17945
   0.19050    0.22727    0.23128    0.25834    0.26663    0.27915    0.28650    0.30371
   0.35502    0.35979
 kpt#   8, nband= 26, wtk=  0.09375, kpt= -0.3750 -0.3750  0.1250 (reduced coord)
  -4.14209   -4.13675   -2.40616   -2.38903   -2.38514   -2.35971   -2.33193   -2.31721
  -0.35335   -0.35022    0.06798    0.10771    0.13584    0.18980    0.19286    0.20552
   0.20973    0.21612    0.21779    0.23076    0.26154    0.31300    0.33267    0.40366
   0.43460    0.46452
 kpt#   9, nband= 26, wtk=  0.03125, kpt=  0.3750  0.3750  0.3750 (reduced coord)
  -4.14176   -4.13647   -2.42070   -2.33041   -2.33041   -2.32766   -2.30352   -2.30352
  -0.39109   -0.37171    0.09952    0.18383    0.19859    0.19859    0.23331    0.23331
   0.23519    0.23519    0.30671    0.34393    0.34393    0.37999    0.40807    0.40807
   0.41854    0.41854
 kpt#  10, nband= 26, wtk=  0.09375, kpt= -0.3750  0.3750  0.3750 (reduced coord)
  -4.14210   -4.13683   -2.40959   -2.40396   -2.36056   -2.35244   -2.34702   -2.32623
  -0.37021   -0.36481    0.10327    0.13196    0.16999    0.17066    0.17654    0.17825
   0.22485    0.22805    0.25240    0.28759    0.31779    0.32521    0.33064    0.35594
   0.36044    0.39110
 Eigenvalues (hartree) for nkpt=  10  k points, SPIN DOWN:
 kpt#   1, nband= 26, wtk=  0.03125, kpt=  0.1250  0.1250  0.1250 (reduced coord)
  -4.14181   -4.13654   -2.37153   -2.33908   -2.33275   -2.33275   -2.30978   -2.30978
  -0.40323   -0.35602    0.07028    0.21119    0.21119    0.22697    0.22697    0.25290
   0.26180    0.26180    0.31951    0.31951    0.37518    0.38782    0.38782    0.39724
   0.40072    0.43695
 kpt#   2, nband= 26, wtk=  0.09375, kpt=  0.3750  0.1250  0.1250 (reduced coord)
  -4.14186   -4.13660   -2.39065   -2.37398   -2.36425   -2.34087   -2.32581   -2.31059
  -0.38100   -0.35280    0.10567    0.14326    0.15643    0.21653    0.21689    0.22033
   0.22304    0.28330    0.29019    0.29833    0.31915    0.31956    0.32784    0.36746
   0.37392    0.40462
 kpt#   3, nband= 26, wtk=  0.09375, kpt= -0.3750  0.1250  0.1250 (reduced coord)
  -4.14217   -4.13690   -2.40659   -2.39326   -2.38333   -2.37258   -2.35952   -2.32626
  -0.35292   -0.35123    0.08118    0.10513    0.17801    0.18168    0.18740    0.19837
   0.20106    0.24314    0.24380    0.25101    0.25791    0.26896    0.28895    0.34854
   0.36810    0.39168
 kpt#   4, nband= 26, wtk=  0.09375, kpt= -0.1250  0.1250  0.1250 (reduced coord)
  -4.14199   -4.13673   -2.40434   -2.38473   -2.35833   -2.33769   -2.32977   -2.32298
  -0.38401   -0.34950    0.10287    0.14288    0.16898    0.19067    0.20284    0.21867
   0.24445    0.25122    0.25379    0.25467    0.30846    0.32446    0.35758    0.37317
   0.39095    0.40214
 kpt#   5, nband= 26, wtk=  0.09375, kpt=  0.3750  0.3750  0.1250 (reduced coord)
  -4.14215   -4.13688   -2.41973   -2.41541   -2.35879   -2.35285   -2.34918   -2.32021
  -0.37755   -0.35691    0.10365    0.11885    0.16043    0.18601    0.19096    0.19390
   0.20126    0.22426    0.23191    0.26398    0.27969    0.29635    0.34775    0.38005
   0.39301    0.39855
 kpt#   6, nband= 26, wtk=  0.18750, kpt= -0.3750  0.3750  0.1250 (reduced coord)
  -4.14216   -4.13690   -2.39906   -2.39517   -2.37558   -2.36991   -2.35116   -2.34118
  -0.35425   -0.34971    0.09221    0.10255    0.16882    0.17437    0.18914    0.20023
   0.20567    0.21861    0.25957    0.26197    0.26905    0.27224    0.32209    0.32388
   0.37446    0.38861
 kpt#   7, nband= 26, wtk=  0.18750, kpt= -0.1250  0.3750  0.1250 (reduced coord)
  -4.14230   -4.13704   -2.41716   -2.40321   -2.39665   -2.38502   -2.35745   -2.33320
  -0.35769   -0.34723    0.09754    0.12994    0.14716    0.14913    0.16842    0.17945
   0.19050    0.22727    0.23128    0.25834    0.26663    0.27915    0.28650    0.30371
   0.35502    0.35979
 kpt#   8, nband= 26, wtk=  0.09375, kpt= -0.3750 -0.3750  0.1250 (reduced coord)
  -4.14209   -4.13675   -2.40616   -2.38903   -2.38514   -2.35971   -2.33193   -2.31721
  -0.35335   -0.35022    0.06798    0.10771    0.13584    0.18980    0.19286    0.20552
   0.20973    0.21612    0.21779    0.23076    0.26154    0.31300    0.33267    0.40366
   0.43460    0.46452
 kpt#   9, nband= 26, wtk=  0.03125, kpt=  0.3750  0.3750  0.3750 (reduced coord)
  -4.14176   -4.13647   -2.42070   -2.33041   -2.33041   -2.32766   -2.30352   -2.30352
  -0.39109   -0.37171    0.09952    0.18383    0.19859    0.19859    0.23331    0.23331
   0.23519    0.23519    0.30671    0.34393    0.34393    0.37999    0.40807    0.40807
   0.41854    0.41854
 kpt#  10, nband= 26, wtk=  0.09375, kpt= -0.3750  0.3750  0.3750 (reduced coord)
  -4.14210   -4.13683   -2.40959   -2.40396   -2.36056   -2.35244   -2.34702   -2.32623
  -0.37021   -0.36481    0.10327    0.13196    0.16999    0.17066    0.17654    0.17825
   0.22485    0.22805    0.25240    0.28759    0.31779    0.32521    0.33064    0.35594
   0.36044    0.39110
 Total charge density [el/Bohr^3]
)     Maximum=    2.8377E+00  at reduced coord.    0.0000    0.0250    0.9750
)Next maximum=    2.8377E+00  at reduced coord.    0.0250    0.0000    0.9750
)     Minimum=    9.8079E-03  at reduced coord.    0.3750    0.3750    0.3750
)Next minimum=    9.8079E-03  at reduced coord.    0.6250    0.6250    0.6250
   Integrated=    4.8000E+01
 Spin up density      [el/Bohr^3]
)     Maximum=    1.4285E+00  at reduced coord.    0.0000    0.0250    0.9750
)Next maximum=    1.4285E+00  at reduced coord.    0.0250    0.0000    0.9750
)     Minimum=    4.8917E-03  at reduced coord.    0.1250    0.1250    0.1250
)Next minimum=    4.8917E-03  at reduced coord.    0.8750    0.8750    0.8750
   Integrated=    2.4000E+01
 Spin down density    [el/Bohr^3]
)     Maximum=    1.4285E+00  at reduced coord.    0.4750    0.5000    0.5250
)Next maximum=    1.4285E+00  at reduced coord.    0.5000    0.4750    0.5250
)     Minimum=    4.8917E-03  at reduced coord.    0.3750    0.3750    0.3750
)Next minimum=    4.8917E-03  at reduced coord.    0.6250    0.6250    0.6250
   Integrated=    2.4000E+01
 Magnetization (spin up - spin down) [el/Bohr^3]
)     Maximum=    2.0737E-02  at reduced coord.    0.0000    0.1500    0.8500
)Next maximum=    2.0737E-02  at reduced coord.    0.1500    0.0000    0.8500
)     Minimum=   -2.0737E-02  at reduced coord.    0.6500    0.5000    0.3500
)Next minimum=   -2.0737E-02  at reduced coord.    0.5000    0.6500    0.3500
   Integrated=   -1.3210E-10
 Relative magnetization (=zeta, between -1 and 1)
)     Maximum=    3.2908E-02  at reduced coord.    0.3000    0.7250    0.9750
)Next maximum=    3.2908E-02  at reduced coord.    0.7250    0.3000    0.9750
)     Minimum=   -3.2909E-02  at reduced coord.    0.7750    0.5250    0.2000
)Next minimum=   -3.2909E-02  at reduced coord.    0.5250    0.7750    0.2000

--- !EnergyTerms
iteration_state     : {dtset: 1, }
comment             : Components of total free energy in Hartree
kinetic             :  8.94745547305679E+01
hartree             :  8.65431997249074E+01
xc                  : -2.18484246285270E+01
Ewald energy        : -2.39331554544165E+02
psp_core            :  1.04313020493137E+01
local_psp           : -2.68580939917276E+02
spherical_terms     : -2.03989461373000E+01
total_energy        : -3.63710808722479E+02
total_energy_eV     : -9.89707443017841E+03
...


--- !EnergyTermsDC
iteration_state     : {dtset: 1, }
comment             : '"Double-counting" decomposition of free energy'
band_energy         : -4.00307316365906E+01
Ewald energy        : -2.39331554544165E+02
psp_core            :  1.04313020493137E+01
xc_dc               : -7.99834128961308E+01
spherical_terms     : -1.47964118470200E+01
total_energy_dc     : -3.63710808874593E+02
total_energy_dc_eV  : -9.89707443431764E+03
...

 
 Cartesian components of stress tensor (hartree/bohr^3)
  sigma(1 1)=  1.42470235E-01  sigma(3 2)= -4.88159609E-04
  sigma(2 2)=  1.42470235E-01  sigma(3 1)= -4.88159609E-04
  sigma(3 3)=  1.42470235E-01  sigma(2 1)= -4.88159609E-04
 
-Cartesian components of stress tensor (GPa)         [Pressure= -4.1916E+03 GPa]
- sigma(1 1)=  4.19161833E+03  sigma(3 2)= -1.43621491E+01
- sigma(2 2)=  4.19161833E+03  sigma(3 1)= -1.43621491E+01
- sigma(3 3)=  4.19161833E+03  sigma(2 1)= -1.43621491E+01
 
== END DATASET(S) ==============================================================
================================================================================
  
 -outvars: echo values of variables after computation  --------
            acell      7.8800000000E+00  7.8800000000E+00  7.8800000000E+00 Bohr
              amu      5.86900000E+01  5.86900000E+01  1.59994000E+01
          chkprim           0
      chksymbreak           0
        dmatpuopt           3
             ecut      1.00000000E+01 Hartree
           etotal     -3.6371080887E+02
            fcart      0.0000000000E+00  0.0000000000E+00  0.0000000000E+00
                       0.0000000000E+00  0.0000000000E+00  0.0000000000E+00
                       1.4618131828E-07  1.4618131828E-07  1.4618131828E-07
                      -1.4618131828E-07 -1.4618131828E-07 -1.4618131828E-07
-          fftalg         512
              ixc     -101130
              kpt      1.25000000E-01  1.25000000E-01  1.25000000E-01
                       3.75000000E-01  1.25000000E-01  1.25000000E-01
                      -3.75000000E-01  1.25000000E-01  1.25000000E-01
                      -1.25000000E-01  1.25000000E-01  1.25000000E-01
                       3.75000000E-01  3.75000000E-01  1.25000000E-01
                      -3.75000000E-01  3.75000000E-01  1.25000000E-01
                      -1.25000000E-01  3.75000000E-01  1.25000000E-01
                      -3.75000000E-01 -3.75000000E-01  1.25000000E-01
                       3.75000000E-01  3.75000000E-01  3.75000000E-01
                      -3.75000000E-01  3.75000000E-01  3.75000000E-01
         kptrlatt        4    0    0      0    4    0      0    0    4
          kptrlen      2.22880057E+01
            lpawu           2       2       1
P           mkmem          10
            natom           4
            nband          26
            ngfft          30      30      30
          ngfftdg          40      40      40
             nkpt          10
           nspden           2
           nsppol           2
             nsym          12
           ntypat           3
              occ      1.000000  1.000000  1.000000  1.000000  1.000000  1.000000
                       1.000000  1.000000  1.000000  1.000000  1.000000  1.000000
                       1.000000  1.000000  1.000000  1.000000  1.000000  1.000000
                       1.000000  1.000000  1.000000  1.000000  1.000000  1.000000
                       0.000000  0.000000
                       1.000000  1.000000  1.000000  1.000000  1.000000  1.000000
                       1.000000  1.000000  1.000000  1.000000  1.000000  1.000000
                       1.000000  1.000000  1.000000  1.000000  1.000000  1.000000
                       1.000000  1.000000  1.000000  1.000000  1.000000  1.000000
                       0.000000  0.000000
           occopt           0
        pawecutdg      2.00000000E+01 Hartree
           prtvol           3
            rprim      5.0000000000E-01  5.0000000000E-01  1.0000000000E+00
                       1.0000000000E+00  5.0000000000E-01  5.0000000000E-01
                       5.0000000000E-01  1.0000000000E+00  5.0000000000E-01
           shiftk      5.00000000E-01  5.00000000E-01  5.00000000E-01
          spgroup         166
           spinat      0.0000000000E+00  0.0000000000E+00  3.0000000000E+00
                       0.0000000000E+00  0.0000000000E+00 -3.0000000000E+00
                       0.0000000000E+00  0.0000000000E+00  0.0000000000E+00
                       0.0000000000E+00  0.0000000000E+00  0.0000000000E+00
           strten      1.4247023535E-01  1.4247023535E-01  1.4247023535E-01
                      -4.8815960891E-04 -4.8815960891E-04 -4.8815960891E-04
           symrel      1  0  0   0  1  0   0  0  1      -1  0  0   0 -1  0   0  0 -1
                       0  1  0   1  0  0   0  0  1       0 -1  0  -1  0  0   0  0 -1
                       0  0  1   1  0  0   0  1  0       0  0 -1  -1  0  0   0 -1  0
                       1  0  0   0  0  1   0  1  0      -1  0  0   0  0 -1   0 -1  0
                       0  1  0   0  0  1   1  0  0       0 -1  0   0  0 -1  -1  0  0
                       0  0  1   0  1  0   1  0  0       0  0 -1   0 -1  0  -1  0  0
           tolvrs      1.00000000E-10
            typat      1  2  3  3
          usepawu           1
           useylm           1
              wtk        0.03125    0.09375    0.09375    0.09375    0.09375    0.18750
                         0.18750    0.09375    0.03125    0.09375
           xangst      0.0000000000E+00  0.0000000000E+00  0.0000000000E+00
                       4.1699164037E+00  4.1699164037E+00  4.1699164037E+00
                       2.0849582018E+00  2.0849582018E+00  2.0849582018E+00
                       6.2548746055E+00  6.2548746055E+00  6.2548746055E+00
            xcart      0.0000000000E+00  0.0000000000E+00  0.0000000000E+00
                       7.8800000000E+00  7.8800000000E+00  7.8800000000E+00
                       3.9400000000E+00  3.9400000000E+00  3.9400000000E+00
                       1.1820000000E+01  1.1820000000E+01  1.1820000000E+01
             xred      0.0000000000E+00  0.0000000000E+00  0.0000000000E+00
                       5.0000000000E-01  5.0000000000E-01  5.0000000000E-01
                       2.5000000000E-01  2.5000000000E-01  2.5000000000E-01
                       7.5000000000E-01  7.5000000000E-01  7.5000000000E-01
            znucl       28.00000   28.00000    8.00000
 
================================================================================


- Timing analysis has been suppressed with timopt=0



================================================================================

 Suggested references for the acknowledgment of ABINIT usage.

 The users of ABINIT have little formal obligations with respect to the ABINIT group
 (those specified in the GNU General Public License, http://www.gnu.org/copyleft/gpl.txt).
 However, it is common practice in the scientific literature,
 to acknowledge the efforts of people that have made the research possible.
 In this spirit, please find below suggested citations of work written by ABINIT developers,
 corresponding to implementations inside of ABINIT that you have used in the present run.
 Note also that it will be of great value to readers of publications presenting these results,
 to read papers enabling them to understand the theoretical formalism and details
 of the ABINIT implementation.
 For information on why they are suggested, see also https://docs.abinit.org/theory/acknowledgments.
-
- [1] Gamma and beta cerium: DFT+U calculations of ground-state parameters.
- B. Amadon, F. Jollet and M. Torrent, Phys. Rev. B 77, 155104 (2008).
- Comment: DFT+U calculations, usepawu/=0. Strong suggestion to cite this paper.
- DOI and bibtex: see https://docs.abinit.org/theory/bibliography/#amadon2008a
-
- [2] Implementation of the Projector Augmented-Wave Method in the ABINIT code.
- M. Torrent, F. Jollet, F. Bottin, G. Zerah, and X. Gonze Comput. Mat. Science 42, 337, (2008).
- Comment: PAW calculations. Strong suggestion to cite this paper.
- DOI and bibtex: see https://docs.abinit.org/theory/bibliography/#torrent2008
-
- [3] Libxc: A library of exchange and correlation functionals for density functional theory.
- M.A.L. Marques, M.J.T. Oliveira, T. Burnus, Computer Physics Communications 183, 2227 (2012).
- Comment: to be cited when LibXC is used (negative value of ixc)
- Strong suggestion to cite this paper.
- DOI and bibtex: see https://docs.abinit.org/theory/bibliography/#marques2012
-
- [4] The Abinit project: Impact, environment and recent developments.
- Computer Phys. Comm. 248, 107042 (2020).
- X.Gonze, B. Amadon, G. Antonius, F.Arnardi, L.Baguet, J.-M.Beuken,
- J.Bieder, F.Bottin, J.Bouchet, E.Bousquet, N.Brouwer, F.Bruneval,
- G.Brunin, T.Cavignac, J.-B. Charraud, Wei Chen, M.Cote, S.Cottenier,
- J.Denier, G.Geneste, Ph.Ghosez, M.Giantomassi, Y.Gillet, O.Gingras,
- D.R.Hamann, G.Hautier, Xu He, N.Helbig, N.Holzwarth, Y.Jia, F.Jollet,
- W.Lafargue-Dit-Hauret, K.Lejaeghere, M.A.L.Marques, A.Martin, C.Martins,
- H.P.C. Miranda, F.Naccarato, K. Persson, G.Petretto, V.Planes, Y.Pouillon,
- S.Prokhorenko, F.Ricci, G.-M.Rignanese, A.H.Romero, M.M.Schmitt, M.Torrent,
- M.J.van Setten, B.Van Troeye, M.J.Verstraete, G.Zerah and J.W.Zwanzig
- Comment: the fifth generic paper describing the ABINIT project.
- Note that a version of this paper, that is not formatted for Computer Phys. Comm. 
- is available at https://www.abinit.org/sites/default/files/ABINIT20.pdf .
- The licence allows the authors to put it on the Web.
- DOI and bibtex: see https://docs.abinit.org/theory/bibliography/#gonze2020
-
- [5] ABINIT: Overview, and focus on selected capabilities
- J. Chem. Phys. 152, 124102 (2020).
- A. Romero, D.C. Allan, B. Amadon, G. Antonius, T. Applencourt, L.Baguet,
- J.Bieder, F.Bottin, J.Bouchet, E.Bousquet, F.Bruneval,
- G.Brunin, D.Caliste, M.Cote,
- J.Denier, C. Dreyer, Ph.Ghosez, M.Giantomassi, Y.Gillet, O.Gingras,
- D.R.Hamann, G.Hautier, F.Jollet, G. Jomard,
- A.Martin, 
- H.P.C. Miranda, F.Naccarato, G.Petretto, N.A. Pike, V.Planes,
- S.Prokhorenko, T. Rangel, F.Ricci, G.-M.Rignanese, M.Royo, M.Stengel, M.Torrent,
- M.J.van Setten, B.Van Troeye, M.J.Verstraete, J.Wiktor, J.W.Zwanziger, and X.Gonze.
- Comment: a global overview of ABINIT, with focus on selected capabilities .
- Note that a version of this paper, that is not formatted for J. Chem. Phys 
- is available at https://www.abinit.org/sites/default/files/ABINIT20_JPC.pdf .
- The licence allows the authors to put it on the Web.
- DOI and bibtex: see https://docs.abinit.org/theory/bibliography/#romero2020
-
- [6] Recent developments in the ABINIT software package.
- Computer Phys. Comm. 205, 106 (2016).
- X.Gonze, F.Jollet, F.Abreu Araujo, D.Adams, B.Amadon, T.Applencourt,
- C.Audouze, J.-M.Beuken, J.Bieder, A.Bokhanchuk, E.Bousquet, F.Bruneval
- D.Caliste, M.Cote, F.Dahm, F.Da Pieve, M.Delaveau, M.Di Gennaro,
- B.Dorado, C.Espejo, G.Geneste, L.Genovese, A.Gerossier, M.Giantomassi,
- Y.Gillet, D.R.Hamann, L.He, G.Jomard, J.Laflamme Janssen, S.Le Roux,
- A.Levitt, A.Lherbier, F.Liu, I.Lukacevic, A.Martin, C.Martins,
- M.J.T.Oliveira, S.Ponce, Y.Pouillon, T.Rangel, G.-M.Rignanese,
- A.H.Romero, B.Rousseau, O.Rubel, A.A.Shukri, M.Stankovski, M.Torrent,
- M.J.Van Setten, B.Van Troeye, M.J.Verstraete, D.Waroquier, J.Wiktor,
- B.Xu, A.Zhou, J.W.Zwanziger.
- Comment: the fourth generic paper describing the ABINIT project.
- Note that a version of this paper, that is not formatted for Computer Phys. Comm. 
- is available at https://www.abinit.org/sites/default/files/ABINIT16.pdf .
- The licence allows the authors to put it on the Web.
- DOI and bibtex: see https://docs.abinit.org/theory/bibliography/#gonze2016
-
- Proc.   0 individual time (sec): cpu=       2197.8  wall=         57.1
 
================================================================================
 
 Calculation completed.
.Delivered   3 WARNINGs and   2 COMMENTs to log file.
+Overall time at end (sec) : cpu=       2197.8  wall=         57.1
