
.Version 10.6.4.5 of ABINIT, released Dec 2025.
.(MPI version, prepared for a x86_64_linux_gnu13.2 computer) 

.Copyright (C) 1998-2026 ABINIT group . 
 ABINIT comes with ABSOLUTELY NO WARRANTY.
 It is free software, and you are welcome to redistribute it
 under certain conditions (GNU General Public License,
 see ~abinit/COPYING or http://www.gnu.org/copyleft/gpl.txt).

 ABINIT is a project of the Universite Catholique de Louvain,
 Corning Inc. and other collaborators, see ~abinit/doc/developers/contributors.txt .
 Please read https://docs.abinit.org/theory/acknowledgments for suggested
 acknowledgments of the ABINIT effort.
 For more information, see https://www.abinit.org .

.Starting date : Wed  4 Mar 2026.
- ( at 12h41 )
  
- input  file    -> /home/buildbot/ABINIT3/eos_gnu_13.2_mpich/baguetl_fix-nhat-fft/tests/TestBot_MPI1/tutorial_tlruj_1-tlruj_2-tlruj_3/tlruj_2.abi
- output file    -> /home/buildbot/ABINIT3/eos_gnu_13.2_mpich/baguetl_fix-nhat-fft/tests/TestBot_MPI1/tutorial_tlruj_1-tlruj_2-tlruj_3/tlruj_2.abo
- root for input  files -> tlruj_2i
- root for output files -> tlruj_2.o

- inpspheads : Reading pseudopotential header in XML form from 
-   /home/buildbot/ABINIT3/eos_gnu_13.2_mpich/baguetl_fix-nhat-fft/tests/Pspdir/Psdj_paw_pbe_std/Ni.xml
- inpspheads : Reading pseudopotential header in XML form from 
-   /home/buildbot/ABINIT3/eos_gnu_13.2_mpich/baguetl_fix-nhat-fft/tests/Pspdir/Psdj_paw_pbe_std/Ni.xml
- inpspheads : Reading pseudopotential header in XML form from 
-   /home/buildbot/ABINIT3/eos_gnu_13.2_mpich/baguetl_fix-nhat-fft/tests/Pspdir/Psdj_paw_pbe_std/O.xml
 DATASET    1 : space group R-3 m (#166); Bravais hR (rhombohedral)
================================================================================
 Values of the parameters that define the memory need for DATASET  1.
     intxc =       0    ionmov =       0      iscf =      17    lmnmax =      18
     lnmax =       6     mgfft =      30  mpssoang =       3    mqgrid =    3001
     natom =       4  nloc_mem =       2    nspden =       2   nspinor =       1
    nsppol =       2      nsym =      12    n1xccc =       1    ntypat =       3
    occopt =       0   xclevel =       2
-    mband =          26        mffmem =           1         mkmem =          10
       mpw =         376          nfft =       27000          nkpt =          10
 PAW method is used; the additional fine FFT grid is defined by:
   mgfftf=        40    nfftf =     64000
================================================================================
P This job should need less than                      41.508 Mbytes of memory.
  Rough estimation (10% accuracy) of disk space for files :
_ WF disk file :      2.985 Mbytes ; DEN or POT disk file :      0.979 Mbytes.
================================================================================

 DATASET    2 : space group R-3 m (#166); Bravais hR (rhombohedral)
================================================================================
 Values of the parameters that define the memory need for DATASET  2.
     intxc =       0    ionmov =       0      iscf =      17    lmnmax =      18
     lnmax =       6     mgfft =      30  mpssoang =       3    mqgrid =    3001
     natom =       4  nloc_mem =       2    nspden =       2   nspinor =       1
    nsppol =       2      nsym =      12    n1xccc =       1    ntypat =       3
    occopt =       0   xclevel =       2
-    mband =          26        mffmem =           1         mkmem =          10
       mpw =         376          nfft =       27000          nkpt =          10
 PAW method is used; the additional fine FFT grid is defined by:
   mgfftf=        40    nfftf =     64000
================================================================================
P This job should need less than                      41.508 Mbytes of memory.
  Rough estimation (10% accuracy) of disk space for files :
_ WF disk file :      2.985 Mbytes ; DEN or POT disk file :      0.979 Mbytes.
================================================================================

 DATASET    3 : space group R-3 m (#166); Bravais hR (rhombohedral)
================================================================================
 Values of the parameters that define the memory need for DATASET  3.
     intxc =       0    ionmov =       0      iscf =      17    lmnmax =      18
     lnmax =       6     mgfft =      30  mpssoang =       3    mqgrid =    3001
     natom =       4  nloc_mem =       2    nspden =       2   nspinor =       1
    nsppol =       2      nsym =      12    n1xccc =       1    ntypat =       3
    occopt =       0   xclevel =       2
-    mband =          26        mffmem =           1         mkmem =          10
       mpw =         376          nfft =       27000          nkpt =          10
 PAW method is used; the additional fine FFT grid is defined by:
   mgfftf=        40    nfftf =     64000
================================================================================
P This job should need less than                      41.508 Mbytes of memory.
  Rough estimation (10% accuracy) of disk space for files :
_ WF disk file :      2.985 Mbytes ; DEN or POT disk file :      0.979 Mbytes.
================================================================================

 DATASET    4 : space group R-3 m (#166); Bravais hR (rhombohedral)
================================================================================
 Values of the parameters that define the memory need for DATASET  4.
     intxc =       0    ionmov =       0      iscf =      17    lmnmax =      18
     lnmax =       6     mgfft =      30  mpssoang =       3    mqgrid =    3001
     natom =       4  nloc_mem =       2    nspden =       2   nspinor =       1
    nsppol =       2      nsym =      12    n1xccc =       1    ntypat =       3
    occopt =       0   xclevel =       2
-    mband =          26        mffmem =           1         mkmem =          10
       mpw =         376          nfft =       27000          nkpt =          10
 PAW method is used; the additional fine FFT grid is defined by:
   mgfftf=        40    nfftf =     64000
================================================================================
P This job should need less than                      41.508 Mbytes of memory.
  Rough estimation (10% accuracy) of disk space for files :
_ WF disk file :      2.985 Mbytes ; DEN or POT disk file :      0.979 Mbytes.
================================================================================

 DATASET    5 : space group R-3 m (#166); Bravais hR (rhombohedral)
================================================================================
 Values of the parameters that define the memory need for DATASET  5.
     intxc =       0    ionmov =       0      iscf =      17    lmnmax =      18
     lnmax =       6     mgfft =      30  mpssoang =       3    mqgrid =    3001
     natom =       4  nloc_mem =       2    nspden =       2   nspinor =       1
    nsppol =       2      nsym =      12    n1xccc =       1    ntypat =       3
    occopt =       0   xclevel =       2
-    mband =          26        mffmem =           1         mkmem =          10
       mpw =         376          nfft =       27000          nkpt =          10
 PAW method is used; the additional fine FFT grid is defined by:
   mgfftf=        40    nfftf =     64000
================================================================================
P This job should need less than                      41.508 Mbytes of memory.
  Rough estimation (10% accuracy) of disk space for files :
_ WF disk file :      2.985 Mbytes ; DEN or POT disk file :      0.979 Mbytes.
================================================================================

--------------------------------------------------------------------------------
------------- Echo of variables that govern the present computation ------------
--------------------------------------------------------------------------------
-
- outvars: echo of selected default values
-   iomode0 =  0 , fftalg0 =512 , wfoptalg0 = 10
-
- outvars: echo of global parameters not present in the input file
-  max_nthreads =    0
-
 -outvars: echo values of preprocessed input variables --------
            acell      7.8800000000E+00  7.8800000000E+00  7.8800000000E+00 Bohr
              amu      5.86900000E+01  5.86900000E+01  1.59994000E+01
         atvshift1      -0.00551   -0.00551   -0.00551   -0.00551   -0.00551
                        -0.00551   -0.00551   -0.00551   -0.00551   -0.00551
                         0.00000    0.00000    0.00000    0.00000    0.00000
                         0.00000    0.00000    0.00000    0.00000    0.00000
                         0.00000    0.00000    0.00000    0.00000    0.00000
                         0.00000    0.00000    0.00000    0.00000    0.00000
                         0.00000    0.00000    0.00000    0.00000    0.00000
                         0.00000    0.00000    0.00000    0.00000    0.00000
         atvshift2      -0.00367   -0.00367   -0.00367   -0.00367   -0.00367
                        -0.00367   -0.00367   -0.00367   -0.00367   -0.00367
                         0.00000    0.00000    0.00000    0.00000    0.00000
                         0.00000    0.00000    0.00000    0.00000    0.00000
                         0.00000    0.00000    0.00000    0.00000    0.00000
                         0.00000    0.00000    0.00000    0.00000    0.00000
                         0.00000    0.00000    0.00000    0.00000    0.00000
                         0.00000    0.00000    0.00000    0.00000    0.00000
         atvshift3      -0.00184   -0.00184   -0.00184   -0.00184   -0.00184
                        -0.00184   -0.00184   -0.00184   -0.00184   -0.00184
                         0.00000    0.00000    0.00000    0.00000    0.00000
                         0.00000    0.00000    0.00000    0.00000    0.00000
                         0.00000    0.00000    0.00000    0.00000    0.00000
                         0.00000    0.00000    0.00000    0.00000    0.00000
                         0.00000    0.00000    0.00000    0.00000    0.00000
                         0.00000    0.00000    0.00000    0.00000    0.00000
         atvshift4       0.00184    0.00184    0.00184    0.00184    0.00184
                         0.00184    0.00184    0.00184    0.00184    0.00184
                         0.00000    0.00000    0.00000    0.00000    0.00000
                         0.00000    0.00000    0.00000    0.00000    0.00000
                         0.00000    0.00000    0.00000    0.00000    0.00000
                         0.00000    0.00000    0.00000    0.00000    0.00000
                         0.00000    0.00000    0.00000    0.00000    0.00000
                         0.00000    0.00000    0.00000    0.00000    0.00000
         atvshift5       0.00367    0.00367    0.00367    0.00367    0.00367
                         0.00367    0.00367    0.00367    0.00367    0.00367
                         0.00000    0.00000    0.00000    0.00000    0.00000
                         0.00000    0.00000    0.00000    0.00000    0.00000
                         0.00000    0.00000    0.00000    0.00000    0.00000
                         0.00000    0.00000    0.00000    0.00000    0.00000
                         0.00000    0.00000    0.00000    0.00000    0.00000
                         0.00000    0.00000    0.00000    0.00000    0.00000
          chkprim           0
      chksymbreak           0
           diemix      4.50000000E-01
        dmatpuopt           3
             ecut      1.00000000E+01 Hartree
-          fftalg         512
              ixc     -101130
           jdtset        1    2    3    4    5
              kpt      1.25000000E-01  1.25000000E-01  1.25000000E-01
                       3.75000000E-01  1.25000000E-01  1.25000000E-01
                      -3.75000000E-01  1.25000000E-01  1.25000000E-01
                      -1.25000000E-01  1.25000000E-01  1.25000000E-01
                       3.75000000E-01  3.75000000E-01  1.25000000E-01
                      -3.75000000E-01  3.75000000E-01  1.25000000E-01
                      -1.25000000E-01  3.75000000E-01  1.25000000E-01
                      -3.75000000E-01 -3.75000000E-01  1.25000000E-01
                       3.75000000E-01  3.75000000E-01  3.75000000E-01
                      -3.75000000E-01  3.75000000E-01  3.75000000E-01
         kptrlatt        4    0    0      0    4    0      0    0    4
          kptrlen      2.22880057E+01
            lpawu           2       2       1
         macro_uj        1
P           mkmem          10
            natom           4
            nband          26
        natvshift        5
           ndtset           5
            ngfft          30      30      30
          ngfftdg          40      40      40
             nkpt          10
           nspden           2
           nsppol           2
             nsym          12
           ntypat           3
              occ      1.000000  1.000000  1.000000  1.000000  1.000000  1.000000
                       1.000000  1.000000  1.000000  1.000000  1.000000  1.000000
                       1.000000  1.000000  1.000000  1.000000  1.000000  1.000000
                       1.000000  1.000000  1.000000  1.000000  1.000000  1.000000
                       0.000000  0.000000
                       1.000000  1.000000  1.000000  1.000000  1.000000  1.000000
                       1.000000  1.000000  1.000000  1.000000  1.000000  1.000000
                       1.000000  1.000000  1.000000  1.000000  1.000000  1.000000
                       1.000000  1.000000  1.000000  1.000000  1.000000  1.000000
                       0.000000  0.000000
           occopt           0
        pawecutdg      2.00000000E+01 Hartree
           pawujv1    -5.5123983263E-03 Hartree
           pawujv2    -3.6749322176E-03 Hartree
           pawujv3    -1.8374661088E-03 Hartree
           pawujv4     1.8374661088E-03 Hartree
           pawujv5     3.6749322176E-03 Hartree
           prtden           0
        prtebands           0
           prteig           0
           prtgsr           0
            prtwf           0
            rprim      5.0000000000E-01  5.0000000000E-01  1.0000000000E+00
                       1.0000000000E+00  5.0000000000E-01  5.0000000000E-01
                       5.0000000000E-01  1.0000000000E+00  5.0000000000E-01
           shiftk      5.00000000E-01  5.00000000E-01  5.00000000E-01
          spgroup         166
           spinat      0.0000000000E+00  0.0000000000E+00  3.0000000000E+00
                       0.0000000000E+00  0.0000000000E+00 -3.0000000000E+00
                       0.0000000000E+00  0.0000000000E+00  0.0000000000E+00
                       0.0000000000E+00  0.0000000000E+00  0.0000000000E+00
           symrel      1  0  0   0  1  0   0  0  1      -1  0  0   0 -1  0   0  0 -1
                       0  1  0   1  0  0   0  0  1       0 -1  0  -1  0  0   0  0 -1
                       0  0  1   1  0  0   0  1  0       0  0 -1  -1  0  0   0 -1  0
                       1  0  0   0  0  1   0  1  0      -1  0  0   0  0 -1   0 -1  0
                       0  1  0   0  0  1   1  0  0       0 -1  0   0  0 -1  -1  0  0
                       0  0  1   0  1  0   1  0  0       0  0 -1   0 -1  0  -1  0  0
           tolvrs      1.00000000E-09
            typat      1  2  3  3
          usepawu           1
           useylm           1
              wtk        0.03125    0.09375    0.09375    0.09375    0.09375    0.18750
                         0.18750    0.09375    0.03125    0.09375
           xangst      0.0000000000E+00  0.0000000000E+00  0.0000000000E+00
                       4.1699164191E+00  4.1699164191E+00  4.1699164191E+00
                       2.0849582095E+00  2.0849582095E+00  2.0849582095E+00
                       6.2548746286E+00  6.2548746286E+00  6.2548746286E+00
            xcart      0.0000000000E+00  0.0000000000E+00  0.0000000000E+00
                       7.8800000000E+00  7.8800000000E+00  7.8800000000E+00
                       3.9400000000E+00  3.9400000000E+00  3.9400000000E+00
                       1.1820000000E+01  1.1820000000E+01  1.1820000000E+01
             xred      0.0000000000E+00  0.0000000000E+00  0.0000000000E+00
                       5.0000000000E-01  5.0000000000E-01  5.0000000000E-01
                       2.5000000000E-01  2.5000000000E-01  2.5000000000E-01
                       7.5000000000E-01  7.5000000000E-01  7.5000000000E-01
            znucl       28.00000   28.00000    8.00000

================================================================================

 chkinp: Checking input parameters for consistency, jdtset=   1.

 chkinp: Checking input parameters for consistency, jdtset=   2.

 chkinp: Checking input parameters for consistency, jdtset=   3.

 chkinp: Checking input parameters for consistency, jdtset=   4.

 chkinp: Checking input parameters for consistency, jdtset=   5.

================================================================================
== DATASET  1 ==================================================================
-   mpi_nproc: 1, omp_nthreads: -1 (-1 if OMP is not activated)


--- !DatasetInfo
iteration_state: {dtset: 1, }
dimensions: {natom: 4, nkpt: 10, mband: 26, nsppol: 2, nspinor: 1, nspden: 2, mpw: 376, }
cutoff_energies: {ecut:  10.0, pawecutdg:  20.0, }
electrons: {nelect:   4.80000000E+01, charge:   0.00000000E+00, occopt:   0.00000000E+00, tsmear:   1.00000000E-02, }
meta: {optdriver: 0, ionmov: 0, optcell: 0, iscf: 17, paral_kgb: 0, }
...

 mkfilename: getwfk from: ./tlruj_1.o_WFK

 Real(R)+Recip(G) space primitive vectors, cartesian coordinates (Bohr,Bohr^-1):
 R(1)=  3.9400000  3.9400000  7.8800000  G(1)= -0.0634518 -0.0634518  0.1903553
 R(2)=  7.8800000  3.9400000  3.9400000  G(2)=  0.1903553 -0.0634518 -0.0634518
 R(3)=  3.9400000  7.8800000  3.9400000  G(3)= -0.0634518  0.1903553 -0.0634518
 Unit cell volume ucvol=  2.4465194E+02 bohr^3
 Angles (23,13,12)=  3.35573098E+01  3.35573098E+01  3.35573098E+01 degrees

 Coarse grid specifications (used for wave-functions):

 getcut: wavevector=  0.0000  0.0000  0.0000  ngfft=  30  30  30
         ecut(hartree)=     10.000   => boxcut(ratio)=   2.18911

 Fine grid specifications (used for densities):

 getcut: wavevector=  0.0000  0.0000  0.0000  ngfft=  40  40  40
         ecut(hartree)=     20.000   => boxcut(ratio)=   2.06006

--- Pseudopotential description ------------------------------------------------
- pspini: atom type   1  psp file is /home/buildbot/ABINIT3/eos_gnu_13.2_mpich/baguetl_fix-nhat-fft/tests/Pspdir/Psdj_paw_pbe_std/Ni.xml
- pspatm: opening atomic psp file    /home/buildbot/ABINIT3/eos_gnu_13.2_mpich/baguetl_fix-nhat-fft/tests/Pspdir/Psdj_paw_pbe_std/Ni.xml
- pspatm : Reading pseudopotential header in XML form from /home/buildbot/ABINIT3/eos_gnu_13.2_mpich/baguetl_fix-nhat-fft/tests/Pspdir/Psdj_paw_pbe_std/Ni.xml
 Pseudopotential format is: paw10
 basis_size (lnmax)=  6 (lmn_size= 18), orbitals=   0   0   1   1   2   2
 Spheres core radius: rc_sph= 1.81432190
 1 radial meshes are used:
  - mesh 1: r(i)=AA*[exp(BB*(i-1))-1], size=1500 , AA= 0.29784E-03 BB= 0.83395E-02
 Shapefunction is SIN type: shapef(r)=[sin(pi*r/rshp)/(pi*r/rshp)]**2
 Radius for shape functions =  1.60094920
 mmax= 1500
 Radial grid used for partial waves is grid 1
 Radial grid used for projectors is grid 1
 Radial grid used for (t)core density is grid 1
 Radial grid used for Vloc is grid 1
 Radial grid used for pseudo valence density is grid 1
 Mesh size for Vloc has been set to 1333 to avoid numerical noise.
 Compensation charge density is not taken into account in XC energy/potential
 pspatm: atomic psp has been read  and splines computed

- pspini: atom type   2  psp file is /home/buildbot/ABINIT3/eos_gnu_13.2_mpich/baguetl_fix-nhat-fft/tests/Pspdir/Psdj_paw_pbe_std/Ni.xml
- pspatm: opening atomic psp file    /home/buildbot/ABINIT3/eos_gnu_13.2_mpich/baguetl_fix-nhat-fft/tests/Pspdir/Psdj_paw_pbe_std/Ni.xml
- pspatm : Reading pseudopotential header in XML form from /home/buildbot/ABINIT3/eos_gnu_13.2_mpich/baguetl_fix-nhat-fft/tests/Pspdir/Psdj_paw_pbe_std/Ni.xml
 Pseudopotential format is: paw10
 basis_size (lnmax)=  6 (lmn_size= 18), orbitals=   0   0   1   1   2   2
 Spheres core radius: rc_sph= 1.81432190
 1 radial meshes are used:
  - mesh 1: r(i)=AA*[exp(BB*(i-1))-1], size=1500 , AA= 0.29784E-03 BB= 0.83395E-02
 Shapefunction is SIN type: shapef(r)=[sin(pi*r/rshp)/(pi*r/rshp)]**2
 Radius for shape functions =  1.60094920
 mmax= 1500
 Radial grid used for partial waves is grid 1
 Radial grid used for projectors is grid 1
 Radial grid used for (t)core density is grid 1
 Radial grid used for Vloc is grid 1
 Radial grid used for pseudo valence density is grid 1
 Mesh size for Vloc has been set to 1333 to avoid numerical noise.
 Compensation charge density is not taken into account in XC energy/potential
 pspatm: atomic psp has been read  and splines computed

- pspini: atom type   3  psp file is /home/buildbot/ABINIT3/eos_gnu_13.2_mpich/baguetl_fix-nhat-fft/tests/Pspdir/Psdj_paw_pbe_std/O.xml
- pspatm: opening atomic psp file    /home/buildbot/ABINIT3/eos_gnu_13.2_mpich/baguetl_fix-nhat-fft/tests/Pspdir/Psdj_paw_pbe_std/O.xml
- pspatm : Reading pseudopotential header in XML form from /home/buildbot/ABINIT3/eos_gnu_13.2_mpich/baguetl_fix-nhat-fft/tests/Pspdir/Psdj_paw_pbe_std/O.xml
 Pseudopotential format is: paw10
 basis_size (lnmax)=  4 (lmn_size=  8), orbitals=   0   0   1   1
 Spheres core radius: rc_sph= 1.41465230
 1 radial meshes are used:
  - mesh 1: r(i)=AA*[exp(BB*(i-1))-1], size=2001 , AA= 0.72565E-03 BB= 0.58052E-02
 Shapefunction is SIN type: shapef(r)=[sin(pi*r/rshp)/(pi*r/rshp)]**2
 Radius for shape functions =  1.20231231
 mmax= 2001
 Radial grid used for partial waves is grid 1
 Radial grid used for projectors is grid 1
 Radial grid used for (t)core density is grid 1
 Radial grid used for Vloc is grid 1
 Radial grid used for pseudo valence density is grid 1
 Mesh size for Vloc has been set to 1762 to avoid numerical noise.
 Compensation charge density is not taken into account in XC energy/potential
 pspatm: atomic psp has been read  and splines computed

   2.55203824E+03                                ecore*ucvol(ha*bohr**3)
--------------------------------------------------------------------------------

-inwffil : will read wavefunctions from disk file ./tlruj_1.o_WFK
_setup2: Arith. and geom. avg. npw (full set) are     368.875     368.830


 ******************************************
 DFT+U Method used: FLL
 ******************************************

================================================================================

--- !BeginCycle
iteration_state: {dtset: 1, }
solver: {iscf: 17, nstep: 30, nline: 4, wfoptalg: 10, }
tolerances: {tolvrs: 1.00E-09, }
...

     iter   Etot(hartree)      deltaE(h)  residm     nres2   difmagsph maxmagsph
 ETOT  1  -363.75876618626    -3.638E+02 1.102E-07 4.793E-01 1.354E-01 1.354E-01
 ETOT  2  -363.76534979445    -6.584E-03 1.367E-06 1.057E+01 7.889E-02 7.194E-02
 ETOT  3  -363.75845927752     6.891E-03 4.526E-04 2.860E-02 9.334E-02 1.498E-01
 ETOT  4  -363.75846308828    -3.811E-06 1.401E-06 6.914E-04 1.627E-03 1.514E-01
 ETOT  5  -363.75846321641    -1.281E-07 6.874E-07 3.264E-04 3.514E-04 1.518E-01
 ETOT  6  -363.75846372876    -5.124E-07 1.876E-07 5.345E-04 5.811E-04 1.524E-01
 ETOT  7  -363.75846369515     3.361E-08 5.981E-08 6.175E-05 4.975E-04 1.529E-01
 ETOT  8  -363.75846382422    -1.291E-07 3.338E-08 2.851E-05 5.767E-04 1.534E-01
 ETOT  9  -363.75846386761    -4.339E-08 1.489E-08 2.469E-05 3.138E-04 1.538E-01
 ETOT 10  -363.75846393937    -7.176E-08 2.713E-08 1.216E-05 1.096E-03 1.549E-01
 ETOT 11  -363.75846396570    -2.633E-08 6.303E-09 1.492E-06 7.186E-04 1.556E-01
 ETOT 12  -363.75846397581    -1.010E-08 4.372E-09 4.494E-07 2.040E-04 1.558E-01
 ETOT 13  -363.75846398647    -1.067E-08 1.512E-09 1.079E-07 1.406E-04 1.559E-01
 ETOT 14  -363.75846398741    -9.416E-10 9.336E-10 1.567E-08 4.952E-05 1.560E-01
 ETOT 15  -363.75846398774    -3.321E-10 2.791E-10 2.745E-09 2.491E-05 1.560E-01
 ETOT 16  -363.75846398781    -6.241E-11 1.390E-10 1.585E-09 5.258E-06 1.560E-01
 ETOT 17  -363.75846398781    -7.049E-12 4.826E-11 2.596E-09 1.478E-06 1.560E-01
 ETOT 18  -363.75846398782    -2.785E-12 1.902E-11 3.909E-11 2.915E-06 1.560E-01

 At SCF step   18       nres2   =  3.91E-11 < tolvrs=  1.00E-09 =>converged.

 Cartesian components of stress tensor (hartree/bohr^3)
  sigma(1 1)=  1.42483938E-01  sigma(3 2)= -4.85585376E-04
  sigma(2 2)=  1.42483938E-01  sigma(3 1)= -4.85585376E-04
  sigma(3 3)=  1.42483938E-01  sigma(2 1)= -4.85585376E-04


--- !ResultsGS
iteration_state: {dtset: 1, }
comment   : Summary of ground state results
lattice_vectors:
- [  3.9400000,   3.9400000,   7.8800000, ]
- [  7.8800000,   3.9400000,   3.9400000, ]
- [  3.9400000,   7.8800000,   3.9400000, ]
lattice_lengths: [   9.65099,    9.65099,    9.65099, ]
lattice_angles: [ 33.557,  33.557,  33.557, ] # degrees, (23, 13, 12)
lattice_volume:   2.4465194E+02
convergence: {deltae: -2.785E-12, res2:  3.909E-11, residm:  1.902E-11, diffor: null, }
etotal    :  -3.63758464E+02
entropy   :   0.00000000E+00
fermie    :   4.06886672E-01
cartesian_stress_tensor: # hartree/bohr^3
- [  1.42483938E-01,  -4.85585376E-04,  -4.85585376E-04, ]
- [ -4.85585376E-04,   1.42483938E-01,  -4.85585376E-04, ]
- [ -4.85585376E-04,  -4.85585376E-04,   1.42483938E-01, ]
pressure_GPa:  -4.1920E+03
xred      :
- [  0.0000E+00,   0.0000E+00,   0.0000E+00, Ni]
- [  5.0000E-01,   5.0000E-01,   5.0000E-01, Ni]
- [  2.5000E-01,   2.5000E-01,   2.5000E-01,  O]
- [  7.5000E-01,   7.5000E-01,   7.5000E-01,  O]
cartesian_forces: # hartree/bohr
- [  5.42101086E-20,  -6.77626358E-20,  -5.42101086E-20, ]
- [  5.42101086E-20,  -6.77626358E-20,  -5.42101086E-20, ]
- [ -3.84191243E-04,  -3.84191243E-04,  -3.84191243E-04, ]
- [  3.84191243E-04,   3.84191243E-04,   3.84191243E-04, ]
force_length_stats: {min:   1.02319336E-19, max:   6.65438753E-04, mean:   3.32719376E-04, }
...

 Integrated electronic and magnetization densities in atomic spheres:
 ------------------------------------------------------------------------------------------------------------
 Radius=ratsph(iatom), smearing ratsm=  0.0000. Diff(up-dn)=approximate z local magnetic moment.
    Atom    Radius    up_density   dn_density  Total(up+dn)  Diff(up-dn)
    1 Ni   1.81432     8.027804     7.872077     15.899880     0.155727
    2 Ni   1.81432     7.866218     8.022224     15.888442    -0.156007
    3  O   1.41465     2.292181     2.291988      4.584169     0.000192
    4  O   1.41465     2.292181     2.291988      4.584169     0.000192
 ------------------------------------------------------------------------------------------------------------
  Sum:                20.478383    20.478278     40.956660     0.000105
 Total magnetization (from the atomic spheres):                0.000105
 Total magnetization (exact up - dn):                         -0.000000


 PAW TEST:
 ==== Compensation charge inside spheres ============
 The following values must be close to each other ...
 Compensation charge over spherical meshes =     12.721410688917075
 Compensation charge over fine fft grid    =     12.721698036393011

 ==== Results concerning PAW augmentation regions ====

 Total pseudopotential strength Dij (hartree):
 Atom #  1 - Spin component 1
  -2.32864   0.37495   0.00000   0.00000   0.00000   0.00000   0.00000   0.00000  -0.00170  -0.00170   0.00000  -0.00170 ...
   0.37495   0.04455   0.00000   0.00000   0.00000   0.00000   0.00000   0.00000   0.00034   0.00034   0.00000   0.00034 ...
   0.00000   0.00000  -2.24018  -0.00125  -0.00125   0.82007   0.00076   0.00076   0.00000   0.00000   0.00000   0.00000 ...
   0.00000   0.00000  -0.00125  -2.24018  -0.00125   0.00076   0.82007   0.00076   0.00000   0.00000   0.00000   0.00000 ...
   0.00000   0.00000  -0.00125  -0.00125  -2.24018   0.00076   0.00076   0.82007   0.00000   0.00000   0.00000   0.00000 ...
   0.00000   0.00000   0.82007   0.00076   0.00076   0.37153  -0.00046  -0.00046   0.00000   0.00000   0.00000   0.00000 ...
   0.00000   0.00000   0.00076   0.82007   0.00076  -0.00046   0.37153  -0.00046   0.00000   0.00000   0.00000   0.00000 ...
   0.00000   0.00000   0.00076   0.00076   0.82007  -0.00046  -0.00046   0.37153   0.00000   0.00000   0.00000   0.00000 ...
  -0.00170   0.00034   0.00000   0.00000   0.00000   0.00000   0.00000   0.00000  -0.91366  -0.00101   0.00093  -0.00101 ...
  -0.00170   0.00034   0.00000   0.00000   0.00000   0.00000   0.00000   0.00000  -0.00101  -0.91366  -0.00047  -0.00101 ...
   0.00000   0.00000   0.00000   0.00000   0.00000   0.00000   0.00000   0.00000   0.00093  -0.00047  -0.91493  -0.00047 ...
  -0.00170   0.00034   0.00000   0.00000   0.00000   0.00000   0.00000   0.00000  -0.00101  -0.00101  -0.00047  -0.91366 ...
   ...  only 12  components have been written...
 Atom #  1 - Spin component 2
  -2.32487   0.37426   0.00000   0.00000   0.00000   0.00000   0.00000   0.00000  -0.00223  -0.00223   0.00000  -0.00223 ...
   0.37426   0.04466   0.00000   0.00000   0.00000   0.00000   0.00000   0.00000   0.00044   0.00044   0.00000   0.00044 ...
   0.00000   0.00000  -2.23702  -0.00165  -0.00165   0.81830   0.00099   0.00099   0.00000   0.00000   0.00000   0.00000 ...
   0.00000   0.00000  -0.00165  -2.23702  -0.00165   0.00099   0.81830   0.00099   0.00000   0.00000   0.00000   0.00000 ...
   0.00000   0.00000  -0.00165  -0.00165  -2.23702   0.00099   0.00099   0.81830   0.00000   0.00000   0.00000   0.00000 ...
   0.00000   0.00000   0.81830   0.00099   0.00099   0.37258  -0.00060  -0.00060   0.00000   0.00000   0.00000   0.00000 ...
   0.00000   0.00000   0.00099   0.81830   0.00099  -0.00060   0.37258  -0.00060   0.00000   0.00000   0.00000   0.00000 ...
   0.00000   0.00000   0.00099   0.00099   0.81830  -0.00060  -0.00060   0.37258   0.00000   0.00000   0.00000   0.00000 ...
  -0.00223   0.00044   0.00000   0.00000   0.00000   0.00000   0.00000   0.00000  -0.91093  -0.00114   0.00137  -0.00114 ...
  -0.00223   0.00044   0.00000   0.00000   0.00000   0.00000   0.00000   0.00000  -0.00114  -0.91093  -0.00068  -0.00114 ...
   0.00000   0.00000   0.00000   0.00000   0.00000   0.00000   0.00000   0.00000   0.00137  -0.00068  -0.91201  -0.00068 ...
  -0.00223   0.00044   0.00000   0.00000   0.00000   0.00000   0.00000   0.00000  -0.00114  -0.00114  -0.00068  -0.91093 ...
   ...  only 12  components have been written...
 Atom #  4 - Spin component 1
   0.61343  -1.75573   0.00001   0.00001   0.00001  -0.00004  -0.00004  -0.00004
  -1.75573   5.08565  -0.00002  -0.00002  -0.00002   0.00010   0.00010   0.00010
   0.00001  -0.00002  -0.29408  -0.00002  -0.00002   0.88876   0.00011   0.00011
   0.00001  -0.00002  -0.00002  -0.29408  -0.00002   0.00011   0.88876   0.00011
   0.00001  -0.00002  -0.00002  -0.00002  -0.29408   0.00011   0.00011   0.88876
  -0.00004   0.00010   0.88876   0.00011   0.00011   0.11666  -0.00056  -0.00056
  -0.00004   0.00010   0.00011   0.88876   0.00011  -0.00056   0.11666  -0.00056
  -0.00004   0.00010   0.00011   0.00011   0.88876  -0.00056  -0.00056   0.11666
 Atom #  4 - Spin component 2
   0.61343  -1.75572  -0.00002  -0.00002  -0.00002   0.00011   0.00011   0.00011
  -1.75572   5.08562   0.00004   0.00004   0.00004  -0.00029  -0.00029  -0.00029
  -0.00002   0.00004  -0.29407  -0.00002  -0.00002   0.88874   0.00011   0.00011
  -0.00002   0.00004  -0.00002  -0.29407  -0.00002   0.00011   0.88874   0.00011
  -0.00002   0.00004  -0.00002  -0.00002  -0.29407   0.00011   0.00011   0.88874
   0.00011  -0.00029   0.88874   0.00011   0.00011   0.11677  -0.00057  -0.00057
   0.00011  -0.00029   0.00011   0.88874   0.00011  -0.00057   0.11677  -0.00057
   0.00011  -0.00029   0.00011   0.00011   0.88874  -0.00057  -0.00057   0.11677


 Augmentation waves occupancies Rhoij:
 Atom #  1 - Spin component 1
   0.97699  -0.16656   0.00000   0.00000   0.00000   0.00000   0.00000   0.00000  -0.00012  -0.00012   0.00000  -0.00012 ...
  -0.16656   0.45536   0.00000   0.00000   0.00000   0.00000   0.00000   0.00000  -0.00320  -0.00320   0.00000  -0.00320 ...
   0.00000   0.00000   1.06702   0.00002   0.00002   0.13588   0.00008   0.00008   0.00000   0.00000   0.00000   0.00000 ...
   0.00000   0.00000   0.00002   1.06702   0.00002   0.00008   0.13588   0.00008   0.00000   0.00000   0.00000   0.00000 ...
   0.00000   0.00000   0.00002   0.00002   1.06702   0.00008   0.00008   0.13588   0.00000   0.00000   0.00000   0.00000 ...
   0.00000   0.00000   0.13588   0.00008   0.00008   0.02463   0.00002   0.00002   0.00000   0.00000   0.00000   0.00000 ...
   0.00000   0.00000   0.00008   0.13588   0.00008   0.00002   0.02463   0.00002   0.00000   0.00000   0.00000   0.00000 ...
   0.00000   0.00000   0.00008   0.00008   0.13588   0.00002   0.00002   0.02463   0.00000   0.00000   0.00000   0.00000 ...
  -0.00012  -0.00320   0.00000   0.00000   0.00000   0.00000   0.00000   0.00000   1.15589  -0.02172   0.02663  -0.02172 ...
  -0.00012  -0.00320   0.00000   0.00000   0.00000   0.00000   0.00000   0.00000  -0.02172   1.15589  -0.01331  -0.02172 ...
   0.00000   0.00000   0.00000   0.00000   0.00000   0.00000   0.00000   0.00000   0.02663  -0.01331   1.06102  -0.01331 ...
  -0.00012  -0.00320   0.00000   0.00000   0.00000   0.00000   0.00000   0.00000  -0.02172  -0.02172  -0.01331   1.15589 ...
   ...  only 12  components have been written...
 Atom #  1 - Spin component 2
   0.97691  -0.16711   0.00000   0.00000   0.00000   0.00000   0.00000   0.00000  -0.00014  -0.00014   0.00000  -0.00014 ...
  -0.16711   0.45290   0.00000   0.00000   0.00000   0.00000   0.00000   0.00000  -0.00182  -0.00182   0.00000  -0.00182 ...
   0.00000   0.00000   1.06700   0.00003   0.00003   0.13578   0.00012   0.00012   0.00000   0.00000   0.00000   0.00000 ...
   0.00000   0.00000   0.00003   1.06700   0.00003   0.00012   0.13578   0.00012   0.00000   0.00000   0.00000   0.00000 ...
   0.00000   0.00000   0.00003   0.00003   1.06700   0.00012   0.00012   0.13578   0.00000   0.00000   0.00000   0.00000 ...
   0.00000   0.00000   0.13578   0.00012   0.00012   0.02454   0.00003   0.00003   0.00000   0.00000   0.00000   0.00000 ...
   0.00000   0.00000   0.00012   0.13578   0.00012   0.00003   0.02454   0.00003   0.00000   0.00000   0.00000   0.00000 ...
   0.00000   0.00000   0.00012   0.00012   0.13578   0.00003   0.00003   0.02454   0.00000   0.00000   0.00000   0.00000 ...
  -0.00014  -0.00182   0.00000   0.00000   0.00000   0.00000   0.00000   0.00000   1.11188  -0.01376   0.00074  -0.01376 ...
  -0.00014  -0.00182   0.00000   0.00000   0.00000   0.00000   0.00000   0.00000  -0.01376   1.11188  -0.00037  -0.01376 ...
   0.00000   0.00000   0.00000   0.00000   0.00000   0.00000   0.00000   0.00000   0.00074  -0.00037   1.01378  -0.00037 ...
  -0.00014  -0.00182   0.00000   0.00000   0.00000   0.00000   0.00000   0.00000  -0.01376  -0.01376  -0.00037   1.11188 ...
   ...  only 12  components have been written...
 Atom #  4 - Spin component 1
   1.01156   0.01395  -0.00082  -0.00082  -0.00082   0.00003   0.00003   0.00003
   0.01395   0.00119   0.00015   0.00015   0.00015   0.00000   0.00000   0.00000
  -0.00082   0.00015   1.06817  -0.00323  -0.00323   0.05050  -0.00033  -0.00033
  -0.00082   0.00015  -0.00323   1.06817  -0.00323  -0.00033   0.05050  -0.00033
  -0.00082   0.00015  -0.00323  -0.00323   1.06817  -0.00033  -0.00033   0.05050
   0.00003   0.00000   0.05050  -0.00033  -0.00033   0.00287  -0.00001  -0.00001
   0.00003   0.00000  -0.00033   0.05050  -0.00033  -0.00001   0.00287  -0.00001
   0.00003   0.00000  -0.00033  -0.00033   0.05050  -0.00001  -0.00001   0.00287
 Atom #  4 - Spin component 2
   1.01152   0.01396   0.00053   0.00053   0.00053  -0.00003  -0.00003  -0.00003
   0.01396   0.00119  -0.00007  -0.00007  -0.00007   0.00000   0.00000   0.00000
   0.00053  -0.00007   1.06810  -0.00321  -0.00321   0.05050  -0.00033  -0.00033
   0.00053  -0.00007  -0.00321   1.06810  -0.00321  -0.00033   0.05050  -0.00033
   0.00053  -0.00007  -0.00321  -0.00321   1.06810  -0.00033  -0.00033   0.05050
  -0.00003   0.00000   0.05050  -0.00033  -0.00033   0.00287  -0.00001  -0.00001
  -0.00003   0.00000  -0.00033   0.05050  -0.00033  -0.00001   0.00287  -0.00001
  -0.00003   0.00000  -0.00033  -0.00033   0.05050  -0.00001  -0.00001   0.00287

 "PAW+U" part of augmentation waves occupancies Rhoij:
 Atom #  1 - L=2 ONLY - Spin component 1
   1.15589  -0.02172   0.02663  -0.02172   0.00000   0.42978  -0.00881   0.01034  -0.00881   0.00000
  -0.02172   1.15589  -0.01331  -0.02172   0.02306  -0.00881   0.42978  -0.00517  -0.00881   0.00895
   0.02663  -0.01331   1.06102  -0.01331   0.00000   0.01204  -0.00602   0.39247  -0.00602   0.00000
  -0.02172  -0.02172  -0.01331   1.15589  -0.02306  -0.00881  -0.00881  -0.00517   0.42978  -0.00895
   0.00000   0.02306   0.00000  -0.02306   1.06102   0.00000   0.01043   0.00000  -0.01043   0.39247
   0.42978  -0.00881   0.01204  -0.00881   0.00000   0.16436  -0.00361   0.00473  -0.00361   0.00000
  -0.00881   0.42978  -0.00602  -0.00881   0.01043  -0.00361   0.16436  -0.00236  -0.00361   0.00410
   0.01034  -0.00517   0.39247  -0.00517   0.00000   0.00473  -0.00236   0.15215  -0.00236   0.00000
  -0.00881  -0.00881  -0.00602   0.42978  -0.01043  -0.00361  -0.00361  -0.00236   0.16436  -0.00410
   0.00000   0.00895   0.00000  -0.00895   0.39247   0.00000   0.00410   0.00000  -0.00410   0.15215
 Atom #  1 - L=2 ONLY - Spin component 2
   1.11188  -0.01376   0.00074  -0.01376   0.00000   0.40969  -0.00539  -0.00014  -0.00539   0.00000
  -0.01376   1.11188  -0.00037  -0.01376   0.00064  -0.00539   0.40969   0.00007  -0.00539  -0.00012
   0.00074  -0.00037   1.01378  -0.00037   0.00000  -0.00033   0.00017   0.37453   0.00017   0.00000
  -0.01376  -0.01376  -0.00037   1.11188  -0.00064  -0.00539  -0.00539   0.00007   0.40969   0.00012
   0.00000   0.00064   0.00000  -0.00064   1.01378   0.00000  -0.00029   0.00000   0.00029   0.37453
   0.40969  -0.00539  -0.00033  -0.00539   0.00000   0.15518  -0.00214  -0.00026  -0.00214   0.00000
  -0.00539   0.40969   0.00017  -0.00539  -0.00029  -0.00214   0.15518   0.00013  -0.00214  -0.00023
  -0.00014   0.00007   0.37453   0.00007   0.00000  -0.00026   0.00013   0.14529   0.00013   0.00000
  -0.00539  -0.00539   0.00017   0.40969   0.00029  -0.00214  -0.00214   0.00013   0.15518   0.00023
   0.00000  -0.00012   0.00000   0.00012   0.37453   0.00000  -0.00023   0.00000   0.00023   0.14529
 Atom #  2 - L=2 ONLY - Spin component 1
   1.11007  -0.01371   0.00055  -0.01371   0.00000   0.40876  -0.00537  -0.00026  -0.00537   0.00000
  -0.01371   1.11007  -0.00028  -0.01371   0.00048  -0.00537   0.40876   0.00013  -0.00537  -0.00022
   0.00055  -0.00028   1.01105  -0.00028   0.00000  -0.00050   0.00025   0.37338   0.00025   0.00000
  -0.01371  -0.01371  -0.00028   1.11007  -0.00048  -0.00537  -0.00537   0.00013   0.40876   0.00022
   0.00000   0.00048   0.00000  -0.00048   1.01105   0.00000  -0.00043   0.00000   0.00043   0.37338
   0.40876  -0.00537  -0.00050  -0.00537   0.00000   0.15474  -0.00213  -0.00034  -0.00213   0.00000
  -0.00537   0.40876   0.00025  -0.00537  -0.00043  -0.00213   0.15474   0.00017  -0.00213  -0.00030
  -0.00026   0.00013   0.37338   0.00013   0.00000  -0.00034   0.00017   0.14484   0.00017   0.00000
  -0.00537  -0.00537   0.00025   0.40876   0.00043  -0.00213  -0.00213   0.00017   0.15474   0.00030
   0.00000  -0.00022   0.00000   0.00022   0.37338   0.00000  -0.00030   0.00000   0.00030   0.14484
 Atom #  2 - L=2 ONLY - Spin component 2
   1.15432  -0.02174   0.02644  -0.02174   0.00000   0.42901  -0.00882   0.01022  -0.00882   0.00000
  -0.02174   1.15432  -0.01322  -0.02174   0.02290  -0.00882   0.42901  -0.00511  -0.00882   0.00885
   0.02644  -0.01322   1.05818  -0.01322   0.00000   0.01190  -0.00595   0.39128  -0.00595   0.00000
  -0.02174  -0.02174  -0.01322   1.15432  -0.02290  -0.00882  -0.00882  -0.00511   0.42901  -0.00885
   0.00000   0.02290   0.00000  -0.02290   1.05818   0.00000   0.01031   0.00000  -0.01031   0.39128
   0.42901  -0.00882   0.01190  -0.00882   0.00000   0.16402  -0.00361   0.00466  -0.00361   0.00000
  -0.00882   0.42901  -0.00595  -0.00882   0.01031  -0.00361   0.16402  -0.00233  -0.00361   0.00404
   0.01022  -0.00511   0.39128  -0.00511   0.00000   0.00466  -0.00233   0.15168  -0.00233   0.00000
  -0.00882  -0.00882  -0.00595   0.42901  -0.01031  -0.00361  -0.00361  -0.00233   0.16402  -0.00404
   0.00000   0.00885   0.00000  -0.00885   0.39128   0.00000   0.00404   0.00000  -0.00404   0.15168
 Atom #  3 - L=1 ONLY - Spin component 1
   1.06817  -0.00323  -0.00323   0.05050  -0.00033  -0.00033
  -0.00323   1.06817  -0.00323  -0.00033   0.05050  -0.00033
  -0.00323  -0.00323   1.06817  -0.00033  -0.00033   0.05050
   0.05050  -0.00033  -0.00033   0.00287  -0.00001  -0.00001
  -0.00033   0.05050  -0.00033  -0.00001   0.00287  -0.00001
  -0.00033  -0.00033   0.05050  -0.00001  -0.00001   0.00287
 Atom #  3 - L=1 ONLY - Spin component 2
   1.06810  -0.00321  -0.00321   0.05050  -0.00033  -0.00033
  -0.00321   1.06810  -0.00321  -0.00033   0.05050  -0.00033
  -0.00321  -0.00321   1.06810  -0.00033  -0.00033   0.05050
   0.05050  -0.00033  -0.00033   0.00287  -0.00001  -0.00001
  -0.00033   0.05050  -0.00033  -0.00001   0.00287  -0.00001
  -0.00033  -0.00033   0.05050  -0.00001  -0.00001   0.00287
 Atom #  4 - L=1 ONLY - Spin component 1
   1.06817  -0.00323  -0.00323   0.05050  -0.00033  -0.00033
  -0.00323   1.06817  -0.00323  -0.00033   0.05050  -0.00033
  -0.00323  -0.00323   1.06817  -0.00033  -0.00033   0.05050
   0.05050  -0.00033  -0.00033   0.00287  -0.00001  -0.00001
  -0.00033   0.05050  -0.00033  -0.00001   0.00287  -0.00001
  -0.00033  -0.00033   0.05050  -0.00001  -0.00001   0.00287
 Atom #  4 - L=1 ONLY - Spin component 2
   1.06810  -0.00321  -0.00321   0.05050  -0.00033  -0.00033
  -0.00321   1.06810  -0.00321  -0.00033   0.05050  -0.00033
  -0.00321  -0.00321   1.06810  -0.00033  -0.00033   0.05050
   0.05050  -0.00033  -0.00033   0.00287  -0.00001  -0.00001
  -0.00033   0.05050  -0.00033  -0.00001   0.00287  -0.00001
  -0.00033  -0.00033   0.05050  -0.00001  -0.00001   0.00287

 ---------- DFT+U DATA --------------------------------------------------- 

 ====== For Atom     1, occupations for correlated orbitals. lpawu =   2

 Atom   1. Occ. for lpawu and for spin  1 =   4.41365
 Atom   1. Occ. for lpawu and for spin  2 =   4.23843
 => On atom   1,  local Mag. for lpawu is       -0.175220

 == Occupation matrix for correlated orbitals:

 Occupation matrix for spin  1
     0.91241   -0.01692    0.02063   -0.01692    0.00000
    -0.01692    0.91241   -0.01032   -0.01692    0.01787
     0.02063   -0.01032    0.83821   -0.01032    0.00000
    -0.01692   -0.01692   -0.01032    0.91241   -0.01787
     0.00000    0.01787    0.00000   -0.01787    0.83821


 Occupation matrix for spin  2
     0.87878   -0.01078    0.00073   -0.01078    0.00000
    -0.01078    0.87878   -0.00037   -0.01078    0.00064
     0.00073   -0.00037    0.80104   -0.00037    0.00000
    -0.01078   -0.01078   -0.00037    0.87878   -0.00064
     0.00000    0.00064    0.00000   -0.00064    0.80104


 ====== For Atom     2, occupations for correlated orbitals. lpawu =   2

 Atom   2. Occ. for lpawu and for spin  1 =   4.23015
 Atom   2. Occ. for lpawu and for spin  2 =   4.40570
 => On atom   2,  local Mag. for lpawu is        0.175555

 == Occupation matrix for correlated orbitals:

 Occupation matrix for spin  1
     0.87743   -0.01074    0.00061   -0.01074    0.00000
    -0.01074    0.87743   -0.00031   -0.01074    0.00053
     0.00061   -0.00031    0.79893   -0.00031    0.00000
    -0.01074   -0.01074   -0.00031    0.87743   -0.00053
     0.00000    0.00053    0.00000   -0.00053    0.79893


 Occupation matrix for spin  2
     0.91123   -0.01694    0.02050   -0.01694    0.00000
    -0.01694    0.91123   -0.01025   -0.01694    0.01775
     0.02050   -0.01025    0.83601   -0.01025    0.00000
    -0.01694   -0.01694   -0.01025    0.91123   -0.01775
     0.00000    0.01775    0.00000   -0.01775    0.83601


 ====== For Atom     3, occupations for correlated orbitals. lpawu =   1

 Atom   3. Occ. for lpawu and for spin  1 =   1.55460
 Atom   3. Occ. for lpawu and for spin  2 =   1.55446
 => On atom   3,  local Mag. for lpawu is       -0.000140

 == Occupation matrix for correlated orbitals:

 Occupation matrix for spin  1
     0.51820   -0.00084   -0.00084
    -0.00084    0.51820   -0.00084
    -0.00084   -0.00084    0.51820


 Occupation matrix for spin  2
     0.51815   -0.00082   -0.00082
    -0.00082    0.51815   -0.00082
    -0.00082   -0.00082    0.51815


 ====== For Atom     4, occupations for correlated orbitals. lpawu =   1

 Atom   4. Occ. for lpawu and for spin  1 =   1.55460
 Atom   4. Occ. for lpawu and for spin  2 =   1.55446
 => On atom   4,  local Mag. for lpawu is       -0.000140

 == Occupation matrix for correlated orbitals:

 Occupation matrix for spin  1
     0.51820   -0.00084   -0.00084
    -0.00084    0.51820   -0.00084
    -0.00084   -0.00084    0.51820


 Occupation matrix for spin  2
     0.51815   -0.00082   -0.00082
    -0.00082    0.51815   -0.00082
    -0.00082   -0.00082    0.51815




 ---------- calculate U, (J) start ---------- 

 All pawujat  ok and equal to   1
 macro_uj=1 and nspden=2: standard determination of Hubbard U-parameter


*********************************************************************
************************  Linear Response U  ************************

 Info printed for perturbed atom:    1

  Perturbations           Occupations 
 --------------- -----------------------------
    alpha [eV]     Unscreened      Screened
 --------------- -----------------------------
   0.0000000000   8.6380182458   8.6380182458
  -0.1500000000   8.6964981863   8.6520721987

                    Scalar response functions:
                    Chi0 [eV^-1]:     -0.86637
                    Chi [eV^-1]:      -0.09369

 The scalar U from the two-point regression scheme is   9.51891 eV.
*********************************************************************
*********************************************************************
Note: For more reliable linear regressions of the response
matrices, it is advised that you have more than two points.
See the LRUJ protocol for more information.


 URES      ii    nat       r_max    U(J)[eV]   U_ASA[eV]   U_inf[eV]
 URES       1      1     0.00000     2.37973     1.91505     1.85249
 URES       2      8    11.14400     8.34374     6.71448     6.49514
 URES       3     27    12.45940     9.16681     7.37684     7.13586
 URES       4     64    22.28800     9.37021     7.54052     7.29420
 URES       5    125    24.28780     9.44277     7.59891     7.35068
 URES       6    216    33.43200     9.47484     7.62472     7.37565

 ---------- calculate U, (J) end -------------- 

================================================================================

 ----iterations are completed or convergence reached----

 Mean square residual over all n,k,spin=   10.681E-14; max=  19.017E-12
 reduced coordinates (array xred) for    4 atoms
       0.000000000000      0.000000000000      0.000000000000
       0.500000000000      0.500000000000      0.500000000000
       0.250000000000      0.250000000000      0.250000000000
       0.750000000000      0.750000000000      0.750000000000
 rms dE/dt=  4.2814E-03; max dE/dt=  6.0549E-03; dE/dt below (all hartree)
    1       0.000000000000      0.000000000000      0.000000000000
    2       0.000000000000      0.000000000000      0.000000000000
    3       0.006054853989      0.006054853989      0.006054853989
    4      -0.006054853989     -0.006054853989     -0.006054853989

 cartesian coordinates (angstrom) at end:
    1      0.00000000000000     0.00000000000000     0.00000000000000
    2      4.16991641908672     4.16991641908672     4.16991641908672
    3      2.08495820954336     2.08495820954336     2.08495820954336
    4      6.25487462863008     6.25487462863008     6.25487462863008

 cartesian forces (hartree/bohr) at end:
    1      0.00000000000000    -0.00000000000000    -0.00000000000000
    2      0.00000000000000    -0.00000000000000    -0.00000000000000
    3     -0.00038419124296    -0.00038419124296    -0.00038419124296
    4      0.00038419124296     0.00038419124296     0.00038419124296
 frms,max,avg= 2.7166423E-04 3.8419124E-04   0.000E+00  0.000E+00  0.000E+00 h/b

 cartesian forces (eV/Angstrom) at end:
    1      0.00000000000000    -0.00000000000000    -0.00000000000000
    2      0.00000000000000    -0.00000000000000    -0.00000000000000
    3     -0.01975590803250    -0.01975590803250    -0.01975590803250
    4      0.01975590803250     0.01975590803250     0.01975590803250
 frms,max,avg= 1.3969537E-02 1.9755908E-02   0.000E+00  0.000E+00  0.000E+00 e/A
 length scales=  7.880000000000  7.880000000000  7.880000000000 bohr
              =  4.169916419087  4.169916419087  4.169916419087 angstroms
 Fermi (or HOMO) energy (hartree) =   0.40689   Average Vxc (hartree)=  -0.46897
 Eigenvalues (hartree) for nkpt=  10  k points, SPIN UP:
 kpt#   1, nband= 26, wtk=  0.03125, kpt=  0.1250  0.1250  0.1250 (reduced coord)
  -4.13802   -4.13610   -2.36951   -2.33717   -2.33037   -2.33037   -2.30834   -2.30834
  -0.40354   -0.35639    0.07010    0.21050    0.21050    0.22570    0.22570    0.25257
   0.26128    0.26128    0.31826    0.31826    0.37388    0.38649    0.38649    0.39600
   0.40070    0.43571
 prteigrs : prtvol=0 or 1, do not print more k-points.

 Eigenvalues (hartree) for nkpt=  10  k points, SPIN DOWN:
 kpt#   1, nband= 26, wtk=  0.03125, kpt=  0.1250  0.1250  0.1250 (reduced coord)
  -4.14324   -4.13088   -2.37027   -2.33643   -2.33217   -2.33217   -2.30654   -2.30654
  -0.40354   -0.35638    0.07009    0.21051    0.21051    0.22570    0.22570    0.25258
   0.26129    0.26129    0.31825    0.31825    0.37396    0.38650    0.38650    0.39597
   0.40063    0.43568
 prteigrs : prtvol=0 or 1, do not print more k-points.


--- !EnergyTerms
iteration_state     : {dtset: 1, }
comment             : Components of total free energy in Hartree
kinetic             :  8.94961346927132E+01
hartree             :  8.65906815426754E+01
xc                  : -2.18505986223930E+01
Ewald energy        : -2.39331554544165E+02
psp_core            :  1.04313020493122E+01
local_psp           : -2.68648474200428E+02
PAW spherical_terms : -2.03982622981769E+01
total_energy        : -3.63710771380463E+02
total_energy_eV     : -9.89707428185746E+03
...


--- !EnergyTermsDC
iteration_state     : {dtset: 1, }
comment             : '"Double-counting" decomposition of free energy'
band_energy         : -4.00263798491403E+01
Ewald energy        : -2.39331554544165E+02
psp_core            :  1.04313020493122E+01
xc_dc               : -8.00302998779472E+01
PAW spherical_terms : -1.48015317658759E+01
total_energy_dc     : -3.63758463987817E+02
total_energy_dc_eV  : -9.89837206381725E+03
...


--- !EnergyTermsWithPAWCore
iteration_state     : {dtset: 1, }
comment             : 'Components of total free energy, including PAW core contributions'
Total energy        : -3.18179006382454E+03
Total energy DC     : -3.18183775643190E+03
Total energy (eV)   : -8.65809183803542E+04
Total energy DC (eV): -8.65822161623140E+04
...


 Cartesian components of stress tensor (hartree/bohr^3)
  sigma(1 1)=  1.42483938E-01  sigma(3 2)= -4.85585376E-04
  sigma(2 2)=  1.42483938E-01  sigma(3 1)= -4.85585376E-04
  sigma(3 3)=  1.42483938E-01  sigma(2 1)= -4.85585376E-04

-Cartesian components of stress tensor (GPa)         [Pressure= -4.1920E+03 GPa]
- sigma(1 1)=  4.19202218E+03  sigma(3 2)= -1.42864150E+01
- sigma(2 2)=  4.19202218E+03  sigma(3 1)= -1.42864150E+01
- sigma(3 3)=  4.19202218E+03  sigma(2 1)= -1.42864150E+01

================================================================================
== DATASET  2 ==================================================================
-   mpi_nproc: 1, omp_nthreads: -1 (-1 if OMP is not activated)


--- !DatasetInfo
iteration_state: {dtset: 2, }
dimensions: {natom: 4, nkpt: 10, mband: 26, nsppol: 2, nspinor: 1, nspden: 2, mpw: 376, }
cutoff_energies: {ecut:  10.0, pawecutdg:  20.0, }
electrons: {nelect:   4.80000000E+01, charge:   0.00000000E+00, occopt:   0.00000000E+00, tsmear:   1.00000000E-02, }
meta: {optdriver: 0, ionmov: 0, optcell: 0, iscf: 17, paral_kgb: 0, }
...

 mkfilename: getwfk from: ./tlruj_1.o_WFK

 Real(R)+Recip(G) space primitive vectors, cartesian coordinates (Bohr,Bohr^-1):
 R(1)=  3.9400000  3.9400000  7.8800000  G(1)= -0.0634518 -0.0634518  0.1903553
 R(2)=  7.8800000  3.9400000  3.9400000  G(2)=  0.1903553 -0.0634518 -0.0634518
 R(3)=  3.9400000  7.8800000  3.9400000  G(3)= -0.0634518  0.1903553 -0.0634518
 Unit cell volume ucvol=  2.4465194E+02 bohr^3
 Angles (23,13,12)=  3.35573098E+01  3.35573098E+01  3.35573098E+01 degrees

 Coarse grid specifications (used for wave-functions):

 getcut: wavevector=  0.0000  0.0000  0.0000  ngfft=  30  30  30
         ecut(hartree)=     10.000   => boxcut(ratio)=   2.18911

 Fine grid specifications (used for densities):

 getcut: wavevector=  0.0000  0.0000  0.0000  ngfft=  40  40  40
         ecut(hartree)=     20.000   => boxcut(ratio)=   2.06006
--------------------------------------------------------------------------------

-inwffil : will read wavefunctions from disk file ./tlruj_1.o_WFK
_setup2: Arith. and geom. avg. npw (full set) are     368.875     368.830


 ******************************************
 DFT+U Method used: FLL
 ******************************************

================================================================================

--- !BeginCycle
iteration_state: {dtset: 2, }
solver: {iscf: 17, nstep: 30, nline: 4, wfoptalg: 10, }
tolerances: {tolvrs: 1.00E-09, }
...

     iter   Etot(hartree)      deltaE(h)  residm     nres2   difmagsph maxmagsph
 ETOT  1  -363.74270119640    -3.637E+02 5.081E-08 1.911E-01 1.495E-01 1.495E-01
 ETOT  2  -363.74528981457    -2.589E-03 5.358E-07 5.178E+00 8.012E-02 7.859E-02
 ETOT  3  -363.74256595333     2.724E-03 1.722E-04 6.078E-03 8.394E-02 1.533E-01
 ETOT  4  -363.74257000093    -4.048E-06 4.625E-07 1.327E-04 6.249E-04 1.540E-01
 ETOT  5  -363.74257042722    -4.263E-07 2.689E-07 5.670E-04 2.840E-04 1.542E-01
 ETOT  6  -363.74257027864     1.486E-07 1.144E-08 1.175E-04 2.498E-04 1.545E-01
 ETOT  7  -363.74257030028    -2.164E-08 4.787E-09 4.089E-05 2.776E-04 1.548E-01
 ETOT  8  -363.74257030949    -9.210E-09 1.397E-10 3.213E-05 9.508E-05 1.549E-01
 ETOT  9  -363.74257032900    -1.950E-08 1.594E-09 1.635E-05 3.114E-04 1.552E-01
 ETOT 10  -363.74257033749    -8.495E-09 1.390E-10 1.577E-05 1.386E-04 1.553E-01
 ETOT 11  -363.74257034769    -1.019E-08 5.504E-09 1.591E-06 7.877E-04 1.561E-01
 ETOT 12  -363.74257035386    -6.172E-09 3.838E-11 5.789E-07 7.563E-05 1.562E-01
 ETOT 13  -363.74257035770    -3.841E-09 1.396E-10 1.316E-07 8.459E-05 1.563E-01
 ETOT 14  -363.74257035980    -2.105E-09 6.476E-11 1.430E-08 7.525E-05 1.563E-01
 ETOT 15  -363.74257036009    -2.885E-10 2.728E-11 1.283E-08 1.358E-05 1.563E-01
 ETOT 16  -363.74257036015    -5.804E-11 1.118E-11 4.237E-09 7.338E-06 1.564E-01
 ETOT 17  -363.74257036015    -1.307E-12 1.076E-12 4.346E-10 2.757E-06 1.564E-01

 At SCF step   17       nres2   =  4.35E-10 < tolvrs=  1.00E-09 =>converged.

 Cartesian components of stress tensor (hartree/bohr^3)
  sigma(1 1)=  1.42479676E-01  sigma(3 2)= -4.86299685E-04
  sigma(2 2)=  1.42479676E-01  sigma(3 1)= -4.86299685E-04
  sigma(3 3)=  1.42479676E-01  sigma(2 1)= -4.86299685E-04


--- !ResultsGS
iteration_state: {dtset: 2, }
comment   : Summary of ground state results
lattice_vectors:
- [  3.9400000,   3.9400000,   7.8800000, ]
- [  7.8800000,   3.9400000,   3.9400000, ]
- [  3.9400000,   7.8800000,   3.9400000, ]
lattice_lengths: [   9.65099,    9.65099,    9.65099, ]
lattice_angles: [ 33.557,  33.557,  33.557, ] # degrees, (23, 13, 12)
lattice_volume:   2.4465194E+02
convergence: {deltae: -1.307E-12, res2:  4.346E-10, residm:  1.076E-12, diffor: null, }
etotal    :  -3.63742570E+02
entropy   :   0.00000000E+00
fermie    :   4.07284737E-01
cartesian_stress_tensor: # hartree/bohr^3
- [  1.42479676E-01,  -4.86299685E-04,  -4.86299685E-04, ]
- [ -4.86299685E-04,   1.42479676E-01,  -4.86299685E-04, ]
- [ -4.86299685E-04,  -4.86299685E-04,   1.42479676E-01, ]
pressure_GPa:  -4.1919E+03
xred      :
- [  0.0000E+00,   0.0000E+00,   0.0000E+00, Ni]
- [  5.0000E-01,   5.0000E-01,   5.0000E-01, Ni]
- [  2.5000E-01,   2.5000E-01,   2.5000E-01,  O]
- [  7.5000E-01,   7.5000E-01,   7.5000E-01,  O]
cartesian_forces: # hartree/bohr
- [ -0.00000000E+00,   2.71050543E-20,  -5.42101086E-20, ]
- [ -0.00000000E+00,   2.71050543E-20,  -5.42101086E-20, ]
- [ -2.57270305E-04,  -2.57270305E-04,  -2.57270305E-04, ]
- [  2.57270305E-04,   2.57270305E-04,   2.57270305E-04, ]
force_length_stats: {min:   6.06087440E-20, max:   4.45605240E-04, mean:   2.22802620E-04, }
...

 Integrated electronic and magnetization densities in atomic spheres:
 ------------------------------------------------------------------------------------------------------------
 Radius=ratsph(iatom), smearing ratsm=  0.0000. Diff(up-dn)=approximate z local magnetic moment.
    Atom    Radius    up_density   dn_density  Total(up+dn)  Diff(up-dn)
    1 Ni   1.81432     8.026377     7.870255     15.896632     0.156122
    2 Ni   1.81432     7.866323     8.022678     15.889001    -0.156355
    3  O   1.41465     2.292227     2.292090      4.584317     0.000137
    4  O   1.41465     2.292227     2.292090      4.584317     0.000137
 ------------------------------------------------------------------------------------------------------------
  Sum:                20.477154    20.477113     40.954267     0.000041
 Total magnetization (from the atomic spheres):                0.000041
 Total magnetization (exact up - dn):                         -0.000000


 PAW TEST:
 ==== Compensation charge inside spheres ============
 The following values must be close to each other ...
 Compensation charge over spherical meshes =     12.720567589015431
 Compensation charge over fine fft grid    =     12.720854497892057

 ==== Results concerning PAW augmentation regions ====

 Total pseudopotential strength Dij (hartree):
 Atom #  1 - Spin component 1
  -2.32959   0.37520   0.00000   0.00000   0.00000   0.00000   0.00000   0.00000  -0.00170  -0.00170   0.00000  -0.00170 ...
   0.37520   0.04451   0.00000   0.00000   0.00000   0.00000   0.00000   0.00000   0.00034   0.00034   0.00000   0.00034 ...
   0.00000   0.00000  -2.24104  -0.00125  -0.00125   0.82074   0.00076   0.00076   0.00000   0.00000   0.00000   0.00000 ...
   0.00000   0.00000  -0.00125  -2.24104  -0.00125   0.00076   0.82074   0.00076   0.00000   0.00000   0.00000   0.00000 ...
   0.00000   0.00000  -0.00125  -0.00125  -2.24104   0.00076   0.00076   0.82074   0.00000   0.00000   0.00000   0.00000 ...
   0.00000   0.00000   0.82074   0.00076   0.00076   0.37110  -0.00046  -0.00046   0.00000   0.00000   0.00000   0.00000 ...
   0.00000   0.00000   0.00076   0.82074   0.00076  -0.00046   0.37110  -0.00046   0.00000   0.00000   0.00000   0.00000 ...
   0.00000   0.00000   0.00076   0.00076   0.82074  -0.00046  -0.00046   0.37110   0.00000   0.00000   0.00000   0.00000 ...
  -0.00170   0.00034   0.00000   0.00000   0.00000   0.00000   0.00000   0.00000  -0.91299  -0.00101   0.00094  -0.00101 ...
  -0.00170   0.00034   0.00000   0.00000   0.00000   0.00000   0.00000   0.00000  -0.00101  -0.91299  -0.00047  -0.00101 ...
   0.00000   0.00000   0.00000   0.00000   0.00000   0.00000   0.00000   0.00000   0.00094  -0.00047  -0.91427  -0.00047 ...
  -0.00170   0.00034   0.00000   0.00000   0.00000   0.00000   0.00000   0.00000  -0.00101  -0.00101  -0.00047  -0.91299 ...
   ...  only 12  components have been written...
 Atom #  1 - Spin component 2
  -2.32581   0.37450   0.00000   0.00000   0.00000   0.00000   0.00000   0.00000  -0.00223  -0.00223   0.00000  -0.00223 ...
   0.37450   0.04461   0.00000   0.00000   0.00000   0.00000   0.00000   0.00000   0.00044   0.00044   0.00000   0.00044 ...
   0.00000   0.00000  -2.23787  -0.00165  -0.00165   0.81896   0.00099   0.00099   0.00000   0.00000   0.00000   0.00000 ...
   0.00000   0.00000  -0.00165  -2.23787  -0.00165   0.00099   0.81896   0.00099   0.00000   0.00000   0.00000   0.00000 ...
   0.00000   0.00000  -0.00165  -0.00165  -2.23787   0.00099   0.00099   0.81896   0.00000   0.00000   0.00000   0.00000 ...
   0.00000   0.00000   0.81896   0.00099   0.00099   0.37216  -0.00060  -0.00060   0.00000   0.00000   0.00000   0.00000 ...
   0.00000   0.00000   0.00099   0.81896   0.00099  -0.00060   0.37216  -0.00060   0.00000   0.00000   0.00000   0.00000 ...
   0.00000   0.00000   0.00099   0.00099   0.81896  -0.00060  -0.00060   0.37216   0.00000   0.00000   0.00000   0.00000 ...
  -0.00223   0.00044   0.00000   0.00000   0.00000   0.00000   0.00000   0.00000  -0.91025  -0.00114   0.00137  -0.00114 ...
  -0.00223   0.00044   0.00000   0.00000   0.00000   0.00000   0.00000   0.00000  -0.00114  -0.91025  -0.00068  -0.00114 ...
   0.00000   0.00000   0.00000   0.00000   0.00000   0.00000   0.00000   0.00000   0.00137  -0.00068  -0.91133  -0.00068 ...
  -0.00223   0.00044   0.00000   0.00000   0.00000   0.00000   0.00000   0.00000  -0.00114  -0.00114  -0.00068  -0.91025 ...
   ...  only 12  components have been written...
 Atom #  4 - Spin component 1
   0.61342  -1.75567   0.00001   0.00001   0.00001  -0.00005  -0.00005  -0.00005
  -1.75567   5.08546  -0.00002  -0.00002  -0.00002   0.00014   0.00014   0.00014
   0.00001  -0.00002  -0.29405  -0.00002  -0.00002   0.88859   0.00011   0.00011
   0.00001  -0.00002  -0.00002  -0.29405  -0.00002   0.00011   0.88859   0.00011
   0.00001  -0.00002  -0.00002  -0.00002  -0.29405   0.00011   0.00011   0.88859
  -0.00005   0.00014   0.88859   0.00011   0.00011   0.11755  -0.00056  -0.00056
  -0.00005   0.00014   0.00011   0.88859   0.00011  -0.00056   0.11755  -0.00056
  -0.00005   0.00014   0.00011   0.00011   0.88859  -0.00056  -0.00056   0.11755
 Atom #  4 - Spin component 2
   0.61341  -1.75566  -0.00002  -0.00002  -0.00002   0.00010   0.00010   0.00010
  -1.75566   5.08543   0.00004   0.00004   0.00004  -0.00026  -0.00026  -0.00026
  -0.00002   0.00004  -0.29405  -0.00002  -0.00002   0.88858   0.00011   0.00011
  -0.00002   0.00004  -0.00002  -0.29405  -0.00002   0.00011   0.88858   0.00011
  -0.00002   0.00004  -0.00002  -0.00002  -0.29405   0.00011   0.00011   0.88858
   0.00010  -0.00026   0.88858   0.00011   0.00011   0.11763  -0.00057  -0.00057
   0.00010  -0.00026   0.00011   0.88858   0.00011  -0.00057   0.11763  -0.00057
   0.00010  -0.00026   0.00011   0.00011   0.88858  -0.00057  -0.00057   0.11763


 Augmentation waves occupancies Rhoij:
 Atom #  1 - Spin component 1
   0.97696  -0.16669   0.00000   0.00000   0.00000   0.00000   0.00000   0.00000  -0.00013  -0.00013   0.00000  -0.00013 ...
  -0.16669   0.45680   0.00000   0.00000   0.00000   0.00000   0.00000   0.00000  -0.00338  -0.00338   0.00000  -0.00338 ...
   0.00000   0.00000   1.06703   0.00002   0.00002   0.13583   0.00008   0.00008   0.00000   0.00000   0.00000   0.00000 ...
   0.00000   0.00000   0.00002   1.06703   0.00002   0.00008   0.13583   0.00008   0.00000   0.00000   0.00000   0.00000 ...
   0.00000   0.00000   0.00002   0.00002   1.06703   0.00008   0.00008   0.13583   0.00000   0.00000   0.00000   0.00000 ...
   0.00000   0.00000   0.13583   0.00008   0.00008   0.02463   0.00002   0.00002   0.00000   0.00000   0.00000   0.00000 ...
   0.00000   0.00000   0.00008   0.13583   0.00008   0.00002   0.02463   0.00002   0.00000   0.00000   0.00000   0.00000 ...
   0.00000   0.00000   0.00008   0.00008   0.13583   0.00002   0.00002   0.02463   0.00000   0.00000   0.00000   0.00000 ...
  -0.00013  -0.00338   0.00000   0.00000   0.00000   0.00000   0.00000   0.00000   1.15545  -0.02173   0.02663  -0.02173 ...
  -0.00013  -0.00338   0.00000   0.00000   0.00000   0.00000   0.00000   0.00000  -0.02173   1.15545  -0.01332  -0.02173 ...
   0.00000   0.00000   0.00000   0.00000   0.00000   0.00000   0.00000   0.00000   0.02663  -0.01332   1.06033  -0.01332 ...
  -0.00013  -0.00338   0.00000   0.00000   0.00000   0.00000   0.00000   0.00000  -0.02173  -0.02173  -0.01332   1.15545 ...
   ...  only 12  components have been written...
 Atom #  1 - Spin component 2
   0.97689  -0.16722   0.00000   0.00000   0.00000   0.00000   0.00000   0.00000  -0.00013  -0.00013   0.00000  -0.00013 ...
  -0.16722   0.45473   0.00000   0.00000   0.00000   0.00000   0.00000   0.00000  -0.00157  -0.00157   0.00000  -0.00157 ...
   0.00000   0.00000   1.06700   0.00003   0.00003   0.13572   0.00012   0.00012   0.00000   0.00000   0.00000   0.00000 ...
   0.00000   0.00000   0.00003   1.06700   0.00003   0.00012   0.13572   0.00012   0.00000   0.00000   0.00000   0.00000 ...
   0.00000   0.00000   0.00003   0.00003   1.06700   0.00012   0.00012   0.13572   0.00000   0.00000   0.00000   0.00000 ...
   0.00000   0.00000   0.13572   0.00012   0.00012   0.02455   0.00003   0.00003   0.00000   0.00000   0.00000   0.00000 ...
   0.00000   0.00000   0.00012   0.13572   0.00012   0.00003   0.02455   0.00003   0.00000   0.00000   0.00000   0.00000 ...
   0.00000   0.00000   0.00012   0.00012   0.13572   0.00003   0.00003   0.02455   0.00000   0.00000   0.00000   0.00000 ...
  -0.00013  -0.00157   0.00000   0.00000   0.00000   0.00000   0.00000   0.00000   1.11131  -0.01381   0.00070  -0.01381 ...
  -0.00013  -0.00157   0.00000   0.00000   0.00000   0.00000   0.00000   0.00000  -0.01381   1.11131  -0.00035  -0.01381 ...
   0.00000   0.00000   0.00000   0.00000   0.00000   0.00000   0.00000   0.00000   0.00070  -0.00035   1.01297  -0.00035 ...
  -0.00013  -0.00157   0.00000   0.00000   0.00000   0.00000   0.00000   0.00000  -0.01381  -0.01381  -0.00035   1.11131 ...
   ...  only 12  components have been written...
 Atom #  4 - Spin component 1
   1.01156   0.01395  -0.00079  -0.00079  -0.00079   0.00003   0.00003   0.00003
   0.01395   0.00119   0.00014   0.00014   0.00014   0.00000   0.00000   0.00000
  -0.00079   0.00014   1.06822  -0.00322  -0.00322   0.05051  -0.00033  -0.00033
  -0.00079   0.00014  -0.00322   1.06822  -0.00322  -0.00033   0.05051  -0.00033
  -0.00079   0.00014  -0.00322  -0.00322   1.06822  -0.00033  -0.00033   0.05051
   0.00003   0.00000   0.05051  -0.00033  -0.00033   0.00287  -0.00001  -0.00001
   0.00003   0.00000  -0.00033   0.05051  -0.00033  -0.00001   0.00287  -0.00001
   0.00003   0.00000  -0.00033  -0.00033   0.05051  -0.00001  -0.00001   0.00287
 Atom #  4 - Spin component 2
   1.01153   0.01396   0.00060   0.00060   0.00060  -0.00003  -0.00003  -0.00003
   0.01396   0.00119  -0.00009  -0.00009  -0.00009   0.00000   0.00000   0.00000
   0.00060  -0.00009   1.06817  -0.00321  -0.00321   0.05051  -0.00033  -0.00033
   0.00060  -0.00009  -0.00321   1.06817  -0.00321  -0.00033   0.05051  -0.00033
   0.00060  -0.00009  -0.00321  -0.00321   1.06817  -0.00033  -0.00033   0.05051
  -0.00003   0.00000   0.05051  -0.00033  -0.00033   0.00287  -0.00001  -0.00001
  -0.00003   0.00000  -0.00033   0.05051  -0.00033  -0.00001   0.00287  -0.00001
  -0.00003   0.00000  -0.00033  -0.00033   0.05051  -0.00001  -0.00001   0.00287

 "PAW+U" part of augmentation waves occupancies Rhoij:
 Atom #  1 - L=2 ONLY - Spin component 1
   1.15545  -0.02173   0.02663  -0.02173   0.00000   0.42958  -0.00882   0.01033  -0.00882   0.00000
  -0.02173   1.15545  -0.01332  -0.02173   0.02306  -0.00882   0.42958  -0.00517  -0.00882   0.00895
   0.02663  -0.01332   1.06033  -0.01332   0.00000   0.01204  -0.00602   0.39217  -0.00602   0.00000
  -0.02173  -0.02173  -0.01332   1.15545  -0.02306  -0.00882  -0.00882  -0.00517   0.42958  -0.00895
   0.00000   0.02306   0.00000  -0.02306   1.06033   0.00000   0.01042   0.00000  -0.01042   0.39217
   0.42958  -0.00882   0.01204  -0.00882   0.00000   0.16428  -0.00361   0.00473  -0.00361   0.00000
  -0.00882   0.42958  -0.00602  -0.00882   0.01042  -0.00361   0.16428  -0.00236  -0.00361   0.00409
   0.01033  -0.00517   0.39217  -0.00517   0.00000   0.00473  -0.00236   0.15203  -0.00236   0.00000
  -0.00882  -0.00882  -0.00602   0.42958  -0.01042  -0.00361  -0.00361  -0.00236   0.16428  -0.00409
   0.00000   0.00895   0.00000  -0.00895   0.39217   0.00000   0.00409   0.00000  -0.00409   0.15203
 Atom #  1 - L=2 ONLY - Spin component 2
   1.11131  -0.01381   0.00070  -0.01381   0.00000   0.40942  -0.00542  -0.00016  -0.00542   0.00000
  -0.01381   1.11131  -0.00035  -0.01381   0.00061  -0.00542   0.40942   0.00008  -0.00542  -0.00014
   0.00070  -0.00035   1.01297  -0.00035   0.00000  -0.00036   0.00018   0.37419   0.00018   0.00000
  -0.01381  -0.01381  -0.00035   1.11131  -0.00061  -0.00542  -0.00542   0.00008   0.40942   0.00014
   0.00000   0.00061   0.00000  -0.00061   1.01297   0.00000  -0.00031   0.00000   0.00031   0.37419
   0.40942  -0.00542  -0.00036  -0.00542   0.00000   0.15506  -0.00215  -0.00028  -0.00215   0.00000
  -0.00542   0.40942   0.00018  -0.00542  -0.00031  -0.00215   0.15506   0.00014  -0.00215  -0.00024
  -0.00016   0.00008   0.37419   0.00008   0.00000  -0.00028   0.00014   0.14515   0.00014   0.00000
  -0.00542  -0.00542   0.00018   0.40942   0.00031  -0.00215  -0.00215   0.00014   0.15506   0.00024
   0.00000  -0.00014   0.00000   0.00014   0.37419   0.00000  -0.00024   0.00000   0.00024   0.14515
 Atom #  2 - L=2 ONLY - Spin component 1
   1.11008  -0.01381   0.00058  -0.01381   0.00000   0.40879  -0.00541  -0.00024  -0.00541   0.00000
  -0.01381   1.11008  -0.00029  -0.01381   0.00050  -0.00541   0.40879   0.00012  -0.00541  -0.00021
   0.00058  -0.00029   1.01115  -0.00029   0.00000  -0.00047   0.00024   0.37342   0.00024   0.00000
  -0.01381  -0.01381  -0.00029   1.11008  -0.00050  -0.00541  -0.00541   0.00012   0.40879   0.00021
   0.00000   0.00050   0.00000  -0.00050   1.01115   0.00000  -0.00041   0.00000   0.00041   0.37342
   0.40879  -0.00541  -0.00047  -0.00541   0.00000   0.15476  -0.00215  -0.00033  -0.00215   0.00000
  -0.00541   0.40879   0.00024  -0.00541  -0.00041  -0.00215   0.15476   0.00017  -0.00215  -0.00029
  -0.00024   0.00012   0.37342   0.00012   0.00000  -0.00033   0.00017   0.14486   0.00017   0.00000
  -0.00541  -0.00541   0.00024   0.40879   0.00041  -0.00215  -0.00215   0.00017   0.15476   0.00029
   0.00000  -0.00021   0.00000   0.00021   0.37342   0.00000  -0.00029   0.00000   0.00029   0.14486
 Atom #  2 - L=2 ONLY - Spin component 2
   1.15441  -0.02174   0.02651  -0.02174   0.00000   0.42907  -0.00883   0.01026  -0.00883   0.00000
  -0.02174   1.15441  -0.01325  -0.02174   0.02296  -0.00883   0.42907  -0.00513  -0.00883   0.00888
   0.02651  -0.01325   1.05844  -0.01325   0.00000   0.01195  -0.00597   0.39138  -0.00597   0.00000
  -0.02174  -0.02174  -0.01325   1.15441  -0.02296  -0.00883  -0.00883  -0.00513   0.42907  -0.00888
   0.00000   0.02296   0.00000  -0.02296   1.05844   0.00000   0.01035   0.00000  -0.01035   0.39138
   0.42907  -0.00883   0.01195  -0.00883   0.00000   0.16405  -0.00361   0.00468  -0.00361   0.00000
  -0.00883   0.42907  -0.00597  -0.00883   0.01035  -0.00361   0.16405  -0.00234  -0.00361   0.00405
   0.01026  -0.00513   0.39138  -0.00513   0.00000   0.00468  -0.00234   0.15172  -0.00234   0.00000
  -0.00883  -0.00883  -0.00597   0.42907  -0.01035  -0.00361  -0.00361  -0.00234   0.16405  -0.00405
   0.00000   0.00888   0.00000  -0.00888   0.39138   0.00000   0.00405   0.00000  -0.00405   0.15172
 Atom #  3 - L=1 ONLY - Spin component 1
   1.06822  -0.00322  -0.00322   0.05051  -0.00033  -0.00033
  -0.00322   1.06822  -0.00322  -0.00033   0.05051  -0.00033
  -0.00322  -0.00322   1.06822  -0.00033  -0.00033   0.05051
   0.05051  -0.00033  -0.00033   0.00287  -0.00001  -0.00001
  -0.00033   0.05051  -0.00033  -0.00001   0.00287  -0.00001
  -0.00033  -0.00033   0.05051  -0.00001  -0.00001   0.00287
 Atom #  3 - L=1 ONLY - Spin component 2
   1.06817  -0.00321  -0.00321   0.05051  -0.00033  -0.00033
  -0.00321   1.06817  -0.00321  -0.00033   0.05051  -0.00033
  -0.00321  -0.00321   1.06817  -0.00033  -0.00033   0.05051
   0.05051  -0.00033  -0.00033   0.00287  -0.00001  -0.00001
  -0.00033   0.05051  -0.00033  -0.00001   0.00287  -0.00001
  -0.00033  -0.00033   0.05051  -0.00001  -0.00001   0.00287
 Atom #  4 - L=1 ONLY - Spin component 1
   1.06822  -0.00322  -0.00322   0.05051  -0.00033  -0.00033
  -0.00322   1.06822  -0.00322  -0.00033   0.05051  -0.00033
  -0.00322  -0.00322   1.06822  -0.00033  -0.00033   0.05051
   0.05051  -0.00033  -0.00033   0.00287  -0.00001  -0.00001
  -0.00033   0.05051  -0.00033  -0.00001   0.00287  -0.00001
  -0.00033  -0.00033   0.05051  -0.00001  -0.00001   0.00287
 Atom #  4 - L=1 ONLY - Spin component 2
   1.06817  -0.00321  -0.00321   0.05051  -0.00033  -0.00033
  -0.00321   1.06817  -0.00321  -0.00033   0.05051  -0.00033
  -0.00321  -0.00321   1.06817  -0.00033  -0.00033   0.05051
   0.05051  -0.00033  -0.00033   0.00287  -0.00001  -0.00001
  -0.00033   0.05051  -0.00033  -0.00001   0.00287  -0.00001
  -0.00033  -0.00033   0.05051  -0.00001  -0.00001   0.00287

 ---------- DFT+U DATA --------------------------------------------------- 

 ====== For Atom     1, occupations for correlated orbitals. lpawu =   2

 Atom   1. Occ. for lpawu and for spin  1 =   4.41157
 Atom   1. Occ. for lpawu and for spin  2 =   4.23586
 => On atom   1,  local Mag. for lpawu is       -0.175705

 == Occupation matrix for correlated orbitals:

 Occupation matrix for spin  1
     0.91207   -0.01693    0.02064   -0.01693    0.00000
    -0.01693    0.91207   -0.01032   -0.01693    0.01787
     0.02064   -0.01032    0.83768   -0.01032    0.00000
    -0.01693   -0.01693   -0.01032    0.91207   -0.01787
     0.00000    0.01787    0.00000   -0.01787    0.83768


 Occupation matrix for spin  2
     0.87835   -0.01082    0.00071   -0.01082    0.00000
    -0.01082    0.87835   -0.00036   -0.01082    0.00062
     0.00071   -0.00036    0.80041   -0.00036    0.00000
    -0.01082   -0.01082   -0.00036    0.87835   -0.00062
     0.00000    0.00062    0.00000   -0.00062    0.80041


 ====== For Atom     2, occupations for correlated orbitals. lpawu =   2

 Atom   2. Occ. for lpawu and for spin  1 =   4.23030
 Atom   2. Occ. for lpawu and for spin  2 =   4.40630
 => On atom   2,  local Mag. for lpawu is        0.175995

 == Occupation matrix for correlated orbitals:

 Occupation matrix for spin  1
     0.87743   -0.01081    0.00063   -0.01081    0.00000
    -0.01081    0.87743   -0.00031   -0.01081    0.00055
     0.00063   -0.00031    0.79901   -0.00031    0.00000
    -0.01081   -0.01081   -0.00031    0.87743   -0.00055
     0.00000    0.00055    0.00000   -0.00055    0.79901


 Occupation matrix for spin  2
     0.91129   -0.01694    0.02055   -0.01694    0.00000
    -0.01694    0.91129   -0.01028   -0.01694    0.01780
     0.02055   -0.01028    0.83622   -0.01028    0.00000
    -0.01694   -0.01694   -0.01028    0.91129   -0.01780
     0.00000    0.01780    0.00000   -0.01780    0.83622


 ====== For Atom     3, occupations for correlated orbitals. lpawu =   1

 Atom   3. Occ. for lpawu and for spin  1 =   1.55463
 Atom   3. Occ. for lpawu and for spin  2 =   1.55453
 => On atom   3,  local Mag. for lpawu is       -0.000094

 == Occupation matrix for correlated orbitals:

 Occupation matrix for spin  1
     0.51821   -0.00083   -0.00083
    -0.00083    0.51821   -0.00083
    -0.00083   -0.00083    0.51821


 Occupation matrix for spin  2
     0.51818   -0.00082   -0.00082
    -0.00082    0.51818   -0.00082
    -0.00082   -0.00082    0.51818


 ====== For Atom     4, occupations for correlated orbitals. lpawu =   1

 Atom   4. Occ. for lpawu and for spin  1 =   1.55463
 Atom   4. Occ. for lpawu and for spin  2 =   1.55453
 => On atom   4,  local Mag. for lpawu is       -0.000094

 == Occupation matrix for correlated orbitals:

 Occupation matrix for spin  1
     0.51821   -0.00083   -0.00083
    -0.00083    0.51821   -0.00083
    -0.00083   -0.00083    0.51821


 Occupation matrix for spin  2
     0.51818   -0.00082   -0.00082
    -0.00082    0.51818   -0.00082
    -0.00082   -0.00082    0.51818




 ---------- calculate U, (J) start ---------- 

 All pawujat  ok and equal to   1
 macro_uj=1 and nspden=2: standard determination of Hubbard U-parameter


*********************************************************************
************************  Linear Response U  ************************

 Info printed for perturbed atom:    1

  Perturbations           Occupations 
 --------------- -----------------------------
    alpha [eV]     Unscreened      Screened
 --------------- -----------------------------
   0.0000000000   8.6380182458   8.6380182458
  -0.1000000000   8.6747201546   8.6474287205

                    Scalar response functions:
                    Chi0 [eV^-1]:     -0.81560
                    Chi [eV^-1]:      -0.09410

 The scalar U from the two-point regression scheme is   9.40036 eV.
*********************************************************************
*********************************************************************
Note: For more reliable linear regressions of the response
matrices, it is advised that you have more than two points.
See the LRUJ protocol for more information.


 URES      ii    nat       r_max    U(J)[eV]   U_ASA[eV]   U_inf[eV]
 URES       1      1     0.00000     2.35009     1.89120     1.82942
 URES       2      8    11.14400     8.23982     6.63086     6.41425
 URES       3     27    12.45940     9.05264     7.28497     7.04699
 URES       4     64    22.28800     9.25352     7.44661     7.20336
 URES       5    125    24.28780     9.32516     7.50427     7.25913
 URES       6    216    33.43200     9.35684     7.52976     7.28379

 ---------- calculate U, (J) end -------------- 

================================================================================

 ----iterations are completed or convergence reached----

 Mean square residual over all n,k,spin=   53.823E-15; max=  10.764E-13
 reduced coordinates (array xred) for    4 atoms
       0.000000000000      0.000000000000      0.000000000000
       0.500000000000      0.500000000000      0.500000000000
       0.250000000000      0.250000000000      0.250000000000
       0.750000000000      0.750000000000      0.750000000000
 rms dE/dt=  2.8670E-03; max dE/dt=  4.0546E-03; dE/dt below (all hartree)
    1       0.000000000000      0.000000000000      0.000000000000
    2       0.000000000000      0.000000000000      0.000000000000
    3       0.004054580014      0.004054580014      0.004054580014
    4      -0.004054580014     -0.004054580014     -0.004054580014

 cartesian coordinates (angstrom) at end:
    1      0.00000000000000     0.00000000000000     0.00000000000000
    2      4.16991641908672     4.16991641908672     4.16991641908672
    3      2.08495820954336     2.08495820954336     2.08495820954336
    4      6.25487462863008     6.25487462863008     6.25487462863008

 cartesian forces (hartree/bohr) at end:
    1     -0.00000000000000     0.00000000000000    -0.00000000000000
    2     -0.00000000000000     0.00000000000000    -0.00000000000000
    3     -0.00025727030544    -0.00025727030544    -0.00025727030544
    4      0.00025727030544     0.00025727030544     0.00025727030544
 frms,max,avg= 1.8191758E-04 2.5727031E-04   0.000E+00  0.000E+00  0.000E+00 h/b

 cartesian forces (eV/Angstrom) at end:
[...]
  -0.40302   -0.35577    0.07041    0.21163    0.21163    0.22778    0.22778    0.25312
   0.26215    0.26215    0.32030    0.32030    0.37597    0.38867    0.38867    0.39799
   0.40075    0.43774
 prteigrs : prtvol=0 or 1, do not print more k-points.

 Eigenvalues (hartree) for nkpt=  10  k points, SPIN DOWN:
 kpt#   1, nband= 26, wtk=  0.03125, kpt=  0.1250  0.1250  0.1250 (reduced coord)
  -4.14094   -4.14036   -2.37280   -2.34056   -2.33366   -2.33366   -2.31151   -2.31151
  -0.40303   -0.35578    0.07040    0.21162    0.21162    0.22778    0.22778    0.25311
   0.26214    0.26214    0.32031    0.32031    0.37594    0.38867    0.38867    0.39799
   0.40082    0.43777
 prteigrs : prtvol=0 or 1, do not print more k-points.


--- !EnergyTerms
iteration_state     : {dtset: 5, }
comment             : Components of total free energy in Hartree
kinetic             :  8.94590398984871E+01
hartree             :  8.65097584049733E+01
xc                  : -2.18469212836971E+01
Ewald energy        : -2.39331554544165E+02
psp_core            :  1.04313020493122E+01
local_psp           : -2.68533458851143E+02
PAW spherical_terms : -2.03989579211862E+01
total_energy        : -3.63710792247419E+02
total_energy_eV     : -9.89707484967626E+03
...


--- !EnergyTermsDC
iteration_state     : {dtset: 5, }
comment             : '"Double-counting" decomposition of free energy'
band_energy         : -4.00354704413136E+01
Ewald energy        : -2.39331554544165E+02
psp_core            :  1.04313020493122E+01
xc_dc               : -7.99503807992052E+01
PAW spherical_terms : -1.47929787105398E+01
total_energy_dc     : -3.63679082445912E+02
total_energy_dc_eV  : -9.89621198201967E+03
...


--- !EnergyTermsWithPAWCore
iteration_state     : {dtset: 5, }
comment             : 'Components of total free energy, including PAW core contributions'
Total energy        : -3.18179008469150E+03
Total energy DC     : -3.18175837488999E+03
Total energy (eV)   : -8.65809189481730E+04
Total energy DC (eV): -8.65800560805164E+04
...


 Cartesian components of stress tensor (hartree/bohr^3)
  sigma(1 1)=  1.42458350E-01  sigma(3 2)= -4.91229278E-04
  sigma(2 2)=  1.42458350E-01  sigma(3 1)= -4.91229278E-04
  sigma(3 3)=  1.42458350E-01  sigma(2 1)= -4.91229278E-04

-Cartesian components of stress tensor (GPa)         [Pressure= -4.1913E+03 GPa]
- sigma(1 1)=  4.19126936E+03  sigma(3 2)= -1.44524643E+01
- sigma(2 2)=  4.19126936E+03  sigma(3 1)= -1.44524643E+01
- sigma(3 3)=  4.19126936E+03  sigma(2 1)= -1.44524643E+01

== END DATASET(S) ==============================================================
================================================================================
  
 -outvars: echo values of variables after computation  --------
            acell      7.8800000000E+00  7.8800000000E+00  7.8800000000E+00 Bohr
              amu      5.86900000E+01  5.86900000E+01  1.59994000E+01
         atvshift1      -0.00551   -0.00551   -0.00551   -0.00551   -0.00551
                        -0.00551   -0.00551   -0.00551   -0.00551   -0.00551
                         0.00000    0.00000    0.00000    0.00000    0.00000
                         0.00000    0.00000    0.00000    0.00000    0.00000
                         0.00000    0.00000    0.00000    0.00000    0.00000
                         0.00000    0.00000    0.00000    0.00000    0.00000
                         0.00000    0.00000    0.00000    0.00000    0.00000
                         0.00000    0.00000    0.00000    0.00000    0.00000
         atvshift2      -0.00367   -0.00367   -0.00367   -0.00367   -0.00367
                        -0.00367   -0.00367   -0.00367   -0.00367   -0.00367
                         0.00000    0.00000    0.00000    0.00000    0.00000
                         0.00000    0.00000    0.00000    0.00000    0.00000
                         0.00000    0.00000    0.00000    0.00000    0.00000
                         0.00000    0.00000    0.00000    0.00000    0.00000
                         0.00000    0.00000    0.00000    0.00000    0.00000
                         0.00000    0.00000    0.00000    0.00000    0.00000
         atvshift3      -0.00184   -0.00184   -0.00184   -0.00184   -0.00184
                        -0.00184   -0.00184   -0.00184   -0.00184   -0.00184
                         0.00000    0.00000    0.00000    0.00000    0.00000
                         0.00000    0.00000    0.00000    0.00000    0.00000
                         0.00000    0.00000    0.00000    0.00000    0.00000
                         0.00000    0.00000    0.00000    0.00000    0.00000
                         0.00000    0.00000    0.00000    0.00000    0.00000
                         0.00000    0.00000    0.00000    0.00000    0.00000
         atvshift4       0.00184    0.00184    0.00184    0.00184    0.00184
                         0.00184    0.00184    0.00184    0.00184    0.00184
                         0.00000    0.00000    0.00000    0.00000    0.00000
                         0.00000    0.00000    0.00000    0.00000    0.00000
                         0.00000    0.00000    0.00000    0.00000    0.00000
                         0.00000    0.00000    0.00000    0.00000    0.00000
                         0.00000    0.00000    0.00000    0.00000    0.00000
                         0.00000    0.00000    0.00000    0.00000    0.00000
         atvshift5       0.00367    0.00367    0.00367    0.00367    0.00367
                         0.00367    0.00367    0.00367    0.00367    0.00367
                         0.00000    0.00000    0.00000    0.00000    0.00000
                         0.00000    0.00000    0.00000    0.00000    0.00000
                         0.00000    0.00000    0.00000    0.00000    0.00000
                         0.00000    0.00000    0.00000    0.00000    0.00000
                         0.00000    0.00000    0.00000    0.00000    0.00000
                         0.00000    0.00000    0.00000    0.00000    0.00000
          chkprim           0
      chksymbreak           0
           diemix      4.50000000E-01
        dmatpuopt           3
             ecut      1.00000000E+01 Hartree
           etotal1    -3.6375846399E+02
           etotal2    -3.6374257036E+02
           etotal3    -3.6372668530E+02
           etotal4    -3.6369494121E+02
           etotal5    -3.6367908245E+02
            fcart1     5.4210108624E-20 -6.7762635780E-20 -5.4210108624E-20
                       5.4210108624E-20 -6.7762635780E-20 -5.4210108624E-20
                      -3.8419124296E-04 -3.8419124296E-04 -3.8419124296E-04
                       3.8419124296E-04  3.8419124296E-04  3.8419124296E-04
            fcart2    -0.0000000000E+00  2.7105054312E-20 -5.4210108624E-20
                      -0.0000000000E+00  2.7105054312E-20 -5.4210108624E-20
                      -2.5727030544E-04 -2.5727030544E-04 -2.5727030544E-04
                       2.5727030544E-04  2.5727030544E-04  2.5727030544E-04
            fcart3     6.7762635780E-21 -2.0328790734E-20  6.7762635780E-21
                       6.7762635780E-21 -2.0328790734E-20  6.7762635780E-21
                      -1.3023297894E-04 -1.3023297894E-04 -1.3023297894E-04
                       1.3023297894E-04  1.3023297894E-04  1.3023297894E-04
            fcart4    -0.0000000000E+00 -0.0000000000E+00 -0.0000000000E+00
                      -0.0000000000E+00 -0.0000000000E+00 -0.0000000000E+00
                       1.3251031312E-04  1.3251031312E-04  1.3251031312E-04
                      -1.3251031312E-04 -1.3251031312E-04 -1.3251031312E-04
            fcart5    -2.7105054312E-20  2.7105054312E-20 -0.0000000000E+00
                      -2.7105054312E-20  2.7105054312E-20 -0.0000000000E+00
                       2.6577599186E-04  2.6577599186E-04  2.6577599186E-04
                      -2.6577599186E-04 -2.6577599186E-04 -2.6577599186E-04
-          fftalg         512
              ixc     -101130
           jdtset        1    2    3    4    5
              kpt      1.25000000E-01  1.25000000E-01  1.25000000E-01
                       3.75000000E-01  1.25000000E-01  1.25000000E-01
                      -3.75000000E-01  1.25000000E-01  1.25000000E-01
                      -1.25000000E-01  1.25000000E-01  1.25000000E-01
                       3.75000000E-01  3.75000000E-01  1.25000000E-01
                      -3.75000000E-01  3.75000000E-01  1.25000000E-01
                      -1.25000000E-01  3.75000000E-01  1.25000000E-01
                      -3.75000000E-01 -3.75000000E-01  1.25000000E-01
                       3.75000000E-01  3.75000000E-01  3.75000000E-01
                      -3.75000000E-01  3.75000000E-01  3.75000000E-01
         kptrlatt        4    0    0      0    4    0      0    0    4
          kptrlen      2.22880057E+01
            lpawu           2       2       1
         macro_uj        1
P           mkmem          10
            natom           4
            nband          26
        natvshift        5
           ndtset           5
            ngfft          30      30      30
          ngfftdg          40      40      40
             nkpt          10
           nspden           2
           nsppol           2
             nsym          12
           ntypat           3
              occ      1.000000  1.000000  1.000000  1.000000  1.000000  1.000000
                       1.000000  1.000000  1.000000  1.000000  1.000000  1.000000
                       1.000000  1.000000  1.000000  1.000000  1.000000  1.000000
                       1.000000  1.000000  1.000000  1.000000  1.000000  1.000000
                       0.000000  0.000000
                       1.000000  1.000000  1.000000  1.000000  1.000000  1.000000
                       1.000000  1.000000  1.000000  1.000000  1.000000  1.000000
                       1.000000  1.000000  1.000000  1.000000  1.000000  1.000000
                       1.000000  1.000000  1.000000  1.000000  1.000000  1.000000
                       0.000000  0.000000
           occopt           0
        pawecutdg      2.00000000E+01 Hartree
           pawujv1    -5.5123983263E-03 Hartree
           pawujv2    -3.6749322176E-03 Hartree
           pawujv3    -1.8374661088E-03 Hartree
           pawujv4     1.8374661088E-03 Hartree
           pawujv5     3.6749322176E-03 Hartree
           prtden           0
        prtebands           0
           prteig           0
           prtgsr           0
            prtwf           0
            rprim      5.0000000000E-01  5.0000000000E-01  1.0000000000E+00
                       1.0000000000E+00  5.0000000000E-01  5.0000000000E-01
                       5.0000000000E-01  1.0000000000E+00  5.0000000000E-01
           shiftk      5.00000000E-01  5.00000000E-01  5.00000000E-01
          spgroup         166
           spinat      0.0000000000E+00  0.0000000000E+00  3.0000000000E+00
                       0.0000000000E+00  0.0000000000E+00 -3.0000000000E+00
                       0.0000000000E+00  0.0000000000E+00  0.0000000000E+00
                       0.0000000000E+00  0.0000000000E+00  0.0000000000E+00
           strten1     1.4248393785E-01  1.4248393785E-01  1.4248393785E-01
                      -4.8558537555E-04 -4.8558537555E-04 -4.8558537555E-04
           strten2     1.4247967561E-01  1.4247967561E-01  1.4247967561E-01
                      -4.8629968488E-04 -4.8629968488E-04 -4.8629968489E-04
           strten3     1.4247518212E-01  1.4247518212E-01  1.4247518212E-01
                      -4.8713661212E-04 -4.8713661212E-04 -4.8713661212E-04
           strten4     1.4246471396E-01  1.4246471396E-01  1.4246471396E-01
                      -4.8947873252E-04 -4.8947873252E-04 -4.8947873252E-04
           strten5     1.4245835000E-01  1.4245835000E-01  1.4245835000E-01
                      -4.9122927842E-04 -4.9122927842E-04 -4.9122927842E-04
           symrel      1  0  0   0  1  0   0  0  1      -1  0  0   0 -1  0   0  0 -1
                       0  1  0   1  0  0   0  0  1       0 -1  0  -1  0  0   0  0 -1
                       0  0  1   1  0  0   0  1  0       0  0 -1  -1  0  0   0 -1  0
                       1  0  0   0  0  1   0  1  0      -1  0  0   0  0 -1   0 -1  0
                       0  1  0   0  0  1   1  0  0       0 -1  0   0  0 -1  -1  0  0
                       0  0  1   0  1  0   1  0  0       0  0 -1   0 -1  0  -1  0  0
           tolvrs      1.00000000E-09
            typat      1  2  3  3
          usepawu           1
           useylm           1
              wtk        0.03125    0.09375    0.09375    0.09375    0.09375    0.18750
                         0.18750    0.09375    0.03125    0.09375
           xangst      0.0000000000E+00  0.0000000000E+00  0.0000000000E+00
                       4.1699164191E+00  4.1699164191E+00  4.1699164191E+00
                       2.0849582095E+00  2.0849582095E+00  2.0849582095E+00
                       6.2548746286E+00  6.2548746286E+00  6.2548746286E+00
            xcart      0.0000000000E+00  0.0000000000E+00  0.0000000000E+00
                       7.8800000000E+00  7.8800000000E+00  7.8800000000E+00
                       3.9400000000E+00  3.9400000000E+00  3.9400000000E+00
                       1.1820000000E+01  1.1820000000E+01  1.1820000000E+01
             xred      0.0000000000E+00  0.0000000000E+00  0.0000000000E+00
                       5.0000000000E-01  5.0000000000E-01  5.0000000000E-01
                       2.5000000000E-01  2.5000000000E-01  2.5000000000E-01
                       7.5000000000E-01  7.5000000000E-01  7.5000000000E-01
            znucl       28.00000   28.00000    8.00000

================================================================================


- Timing analysis has been suppressed with timopt=0



================================================================================

 Suggested references for the acknowledgment of ABINIT usage.

 The users of ABINIT have little formal obligations with respect to the ABINIT group
 (those specified in the GNU General Public License, http://www.gnu.org/copyleft/gpl.txt).
 However, it is common practice in the scientific literature,
 to acknowledge the efforts of people that have made the research possible.
 In this spirit, please find below suggested citations of work written by ABINIT developers,
 corresponding to implementations inside of ABINIT that you have used in the present run.
 Note also that it will be of great value to readers of publications presenting these results,
 to read papers enabling them to understand the theoretical formalism and details
 of the ABINIT implementation.
 For information on why they are suggested, see also https://docs.abinit.org/theory/acknowledgments.
-
- [1] Facilities and practices for linear response Hubbard parameters U and J in Abinit.
- L. MacEnulty, M. Giantomassi, B. Amadon, G.-M. Rignanese and D.D. O'Regan Electron. Struct. 6 037003 (2024).
- Comment: to be cited in case the Hubbard U or Hund's J are calculated using the lrUJ utility
- or the renovated functionalities of UJdet, i.e., macro_uj>0.
- DOI and bibtex: see https://docs.abinit.org/theory/bibliography/#MacEnulty2024
-
- [2] Gamma and beta cerium: DFT+U calculations of ground-state parameters.
- B. Amadon, F. Jollet and M. Torrent, Phys. Rev. B 77, 155104 (2008).
- Comment: DFT+U calculations, usepawu/=0. Strong suggestion to cite this paper.
- DOI and bibtex: see https://docs.abinit.org/theory/bibliography/#amadon2008a
-
- [3] Implementation of the Projector Augmented-Wave Method in the ABINIT code.
- M. Torrent, F. Jollet, F. Bottin, G. Zerah, and X. Gonze Comput. Mat. Science 42, 337, (2008).
- Comment: PAW calculations. Strong suggestion to cite this paper.
- DOI and bibtex: see https://docs.abinit.org/theory/bibliography/#torrent2008
-
- [4] Libxc: A library of exchange and correlation functionals for density functional theory.
- M.A.L. Marques, M.J.T. Oliveira, T. Burnus, Computer Physics Communications 183, 2227 (2012).
- Comment: to be cited when LibXC is used (negative value of ixc)
- Strong suggestion to cite this paper.
- DOI and bibtex: see https://docs.abinit.org/theory/bibliography/#marques2012
-
- [5] Abinit 2025: New Capabilities for the Predictive Modeling of Solids and Nanomaterials.
- J. Chem. Phys. 163, 164126 (2025).
- M.J. Verstraete, J. Abreu, G. Allemand, B. Amadon, G. Antonius,
- M. Azizi, L. Baguet, C. Barat, L. Bastogne, R. Bejaud, J.-M. Beuken,
- J. Bieder, A. Blanchet, F. Bottin, J. Bouchet, J. Bouquiaux, E. Bousquet,
- J. Boust, F. Brieuc, V. Brousseau-Couture, N. Brouwer, F. Bruneval,
- A. Castellano, E. Castiel, J.-B. Charraud, J. Clerouin, M. Cote, C. Duval,
- A. Gallo, F. Gendron, G. Geneste, Ph. Ghosez, M. Giantomassi, O. Gingras,
- F. Gomez-Ortiz, X. Gonze, F. Goudreault, A. Gruneis, R. Gupta, B. Guster,
- D.R. Hamann, Xu He, O. Hellman, N. Holzwarth, F. Jollet, P. Kestener,
- I.-M. Lygatsika, O. Nadeau, L. MacEnulty, E. Mara
- Comment: the sixth generic paper describing the ABINIT project.
- Note that a version of this paper, that is not formatted for J. Chem. Phys. 
- is available at
- https://github.com/abinit/abinit_assets/tree/main/abinit_package/papers/ABINIT25.pdf .
- The licence allows the authors to put it on the Web.
- DOI and bibtex: see https://docs.abinit.org/theory/bibliography/#verstraete2025
-
- [6] The Abinit project: Impact, environment and recent developments.
- Computer Phys. Comm. 248, 107042 (2020).
- X.Gonze, B. Amadon, G. Antonius, F.Arnardi, L.Baguet, J.-M.Beuken,
- J.Bieder, F.Bottin, J.Bouchet, E.Bousquet, N.Brouwer, F.Bruneval,
- G.Brunin, T.Cavignac, J.-B. Charraud, Wei Chen, M.Cote, S.Cottenier,
- J.Denier, G.Geneste, Ph.Ghosez, M.Giantomassi, Y.Gillet, O.Gingras,
- D.R.Hamann, G.Hautier, Xu He, N.Helbig, N.Holzwarth, Y.Jia, F.Jollet,
- W.Lafargue-Dit-Hauret, K.Lejaeghere, M.A.L.Marques, A.Martin, C.Martins,
- H.P.C. Miranda, F.Naccarato, K. Persson, G.Petretto, V.Planes, Y.Pouillon,
- S.Prokhorenko, F.Ricci, G.-M.Rignanese, A.H.Romero, M.M.Schmitt, M.Torrent,
- M.J.van Setten, B.Van Troeye, M.J.Verstraete, G.Zerah and J.W.Zwanzig
- Comment: the fifth generic paper describing the ABINIT project.
- Note that a version of this paper, that is not formatted for Computer Phys. Comm. 
- is available at
- https://github.com/abinit/abinit_assets/tree/main/abinit_package/papers/ABINIT20.pdf .
- The licence allows the authors to put it on the Web.
- DOI and bibtex: see https://docs.abinit.org/theory/bibliography/#gonze2020
-
- [7] The Abinit project: Impact, environment and recent developments.
- Computer Phys. Comm. 248, 107042 (2020).
- X.Gonze, B. Amadon, G. Antonius, F.Arnardi, L.Baguet, J.-M.Beuken,
- J.Bieder, F.Bottin, J.Bouchet, E.Bousquet, N.Brouwer, F.Bruneval,
- G.Brunin, T.Cavignac, J.-B. Charraud, Wei Chen, M.Cote, S.Cottenier,
- J.Denier, G.Geneste, Ph.Ghosez, M.Giantomassi, Y.Gillet, O.Gingras,
- D.R.Hamann, G.Hautier, Xu He, N.Helbig, N.Holzwarth, Y.Jia, F.Jollet,
- W.Lafargue-Dit-Hauret, K.Lejaeghere, M.A.L.Marques, A.Martin, C.Martins,
- H.P.C. Miranda, F.Naccarato, K. Persson, G.Petretto, V.Planes, Y.Pouillon,
- S.Prokhorenko, F.Ricci, G.-M.Rignanese, A.H.Romero, M.M.Schmitt, M.Torrent,
- M.J.van Setten, B.Van Troeye, M.J.Verstraete, G.Zerah and J.W.Zwanzig
- Comment: a global overview of ABINIT, with focus on selected capabilities .
- Note that a version of this paper, that is not formatted for J. Chem. Phys. 
- is available at
-  https://github.com/abinit/abinit_assets/tree/main/abinit_package/papers/ABINIT20_JPC.pdf .
- The licence allows the authors to put it on the Web.
- DOI and bibtex: see https://docs.abinit.org/theory/bibliography/#romero2020
-
- Proc.   0 individual time (sec): cpu=        106.1  wall=        106.2

================================================================================

 Calculation completed.
.Delivered  20 WARNINGs and   6 COMMENTs to log file.
+Overall time at end (sec) : cpu=        106.1  wall=        106.2
