
.Version 10.5.4.6 of ABINIT, released Oct 2025.
.(sequential version, prepared for a x86_64_linux_gnu13.2 computer) 

.Copyright (C) 1998-2025 ABINIT group . 
 ABINIT comes with ABSOLUTELY NO WARRANTY.
 It is free software, and you are welcome to redistribute it
 under certain conditions (GNU General Public License,
 see ~abinit/COPYING or http://www.gnu.org/copyleft/gpl.txt).

 ABINIT is a project of the Universite Catholique de Louvain,
 Corning Inc. and other collaborators, see ~abinit/doc/developers/contributors.txt .
 Please read https://docs.abinit.org/theory/acknowledgments for suggested
 acknowledgments of the ABINIT effort.
 For more information, see https://www.abinit.org .

.Starting date : Mon 17 Nov 2025.
- ( at 22h24 )
  
- input  file    -> /home/buildbot/ABINIT3/eos_gnu_13.2_serial/jzwanzig_j-doc/Test_suite/tutorial_tnuc_5/tnuc_5.abi
- output file    -> tnuc_5.abo
- root for input  files -> tnuc_5i
- root for output files -> tnuc_5o

- inpspheads : Reading pseudopotential header in XML form from 
-   /home/buildbot/ABINIT3/eos_gnu_13.2_serial/jzwanzig_j-doc/tests/Pspdir/Psdj_paw_pbe_std/Cl.xml
- inpspheads : Reading pseudopotential header in XML form from 
-   /home/buildbot/ABINIT3/eos_gnu_13.2_serial/jzwanzig_j-doc/tests/Pspdir/Psdj_paw_pbe_std/F.xml
 DATASET    1 : space group P1 (#  1); Bravais aP (primitive triclinic)
================================================================================
 Values of the parameters that define the memory need for DATASET  1.
     intxc =       0    ionmov =       0      iscf =      17    lmnmax =       8
     lnmax =       4     mgfft =      54  mpssoang =       2    mqgrid =    3805
     natom =       2  nloc_mem =       2    nspden =       1   nspinor =       2
    nsppol =       1      nsym =       1    n1xccc =       1    ntypat =       2
    occopt =       1   xclevel =       2
-    mband =          16        mffmem =           1         mkmem =           1
       mpw =       10131          nfft =      157464          nkpt =           1
 PAW method is used; the additional fine FFT grid is defined by:
   mgfftf=        80    nfftf =    512000
================================================================================
P This job should need less than                     146.753 Mbytes of memory.
  Rough estimation (10% accuracy) of disk space for files :
_ WF disk file :      2.475 Mbytes ; DEN or POT disk file :      3.908 Mbytes.
================================================================================

 DATASET    2 : space group P1 (#  1); Bravais aP (primitive triclinic)
================================================================================
 Values of the parameters that define the memory need for DATASET  2.
     intxc =       0    ionmov =       0      iscf =      17    lmnmax =       8
     lnmax =       4     mgfft =      54  mpssoang =       2    mqgrid =    3805
     natom =       2  nloc_mem =       2    nspden =       1   nspinor =       2
    nsppol =       1      nsym =       1    n1xccc =       1    ntypat =       2
    occopt =       1   xclevel =       2
-    mband =          16        mffmem =           1         mkmem =           1
       mpw =       10131          nfft =      157464          nkpt =           1
 PAW method is used; the additional fine FFT grid is defined by:
   mgfftf=        80    nfftf =    512000
================================================================================
P This job should need less than                     146.753 Mbytes of memory.
  Rough estimation (10% accuracy) of disk space for files :
_ WF disk file :      2.475 Mbytes ; DEN or POT disk file :      3.908 Mbytes.
================================================================================

 DATASET    3 : space group P4 (# 75); Bravais tP (primitive tetrag.)
================================================================================
 Values of the parameters that define the memory need for DATASET  3.
     intxc =       0    ionmov =       0      iscf =      17    lmnmax =       8
     lnmax =       4     mgfft =      54  mpssoang =       2    mqgrid =    3805
     natom =       2  nloc_mem =       2    nspden =       1   nspinor =       2
    nsppol =       1      nsym =       4    n1xccc =       1    ntypat =       2
    occopt =       1   xclevel =       2
-    mband =          16        mffmem =           1         mkmem =           1
       mpw =       10131          nfft =      157464          nkpt =           1
 PAW method is used; the additional fine FFT grid is defined by:
   mgfftf=        80    nfftf =    512000
================================================================================
P This job should need less than                     150.357 Mbytes of memory.
  Rough estimation (10% accuracy) of disk space for files :
_ WF disk file :      2.475 Mbytes ; DEN or POT disk file :      3.908 Mbytes.
================================================================================

 DATASET    4 : space group P4 (# 75); Bravais tP (primitive tetrag.)
================================================================================
 Values of the parameters that define the memory need for DATASET  4.
     intxc =       0    ionmov =       0      iscf =      17    lmnmax =       8
     lnmax =       4     mgfft =      54  mpssoang =       2    mqgrid =    3805
     natom =       2  nloc_mem =       2    nspden =       1   nspinor =       2
    nsppol =       1      nsym =       4    n1xccc =       1    ntypat =       2
    occopt =       1   xclevel =       2
-    mband =          16        mffmem =           1         mkmem =           1
       mpw =       10131          nfft =      157464          nkpt =           1
 PAW method is used; the additional fine FFT grid is defined by:
   mgfftf=        80    nfftf =    512000
================================================================================
P This job should need less than                     150.357 Mbytes of memory.
  Rough estimation (10% accuracy) of disk space for files :
_ WF disk file :      2.475 Mbytes ; DEN or POT disk file :      3.908 Mbytes.
================================================================================

--------------------------------------------------------------------------------
------------- Echo of variables that govern the present computation ------------
--------------------------------------------------------------------------------
-
- outvars: echo of selected default values
-   iomode0 =  0 , fftalg0 =512 , wfoptalg0 = 10
-
- outvars: echo of global parameters not present in the input file
-  max_nthreads =    0
-
 -outvars: echo values of preprocessed input variables --------
            acell      1.8897261329E+01  1.8897261329E+01  1.8897261329E+01 Bohr
              amu      3.54527000E+01  1.89984032E+01
         atndlist1     0.0000000000E+00  1.0000000000E+00  0.0000000000E+00
                       0.0000000000E+00  1.0000000000E+00  0.0000000000E+00
         atndlist2     0.0000000000E+00  1.0000000000E+00  0.0000000000E+00
                       0.0000000000E+00 -1.0000000000E+00  0.0000000000E+00
         atndlist3     0.0000000000E+00  0.0000000000E+00  1.0000000000E+00
                       0.0000000000E+00  0.0000000000E+00  1.0000000000E+00
         atndlist4     0.0000000000E+00  0.0000000000E+00  1.0000000000E+00
                       0.0000000000E+00  0.0000000000E+00 -1.0000000000E+00
      chksymbreak           0
      chksymtnons           0
             ecut      1.00000000E+01 Hartree
-          fftalg         512
            iatnd        1    2
           istwfk        1
              ixc     -101130
           jdtset        1    2    3    4
           kptopt           0
P           mkmem           1
            natnd           2
            natom           2
            nband          16
           ndtset           4
            ngfft          54      54      54
          ngfftdg          80      80      80
             nkpt           1
          nspinor           2
            nstep          20
             nsym1          1
             nsym2          1
             nsym3          4
             nsym4          4
           ntypat           2
        nucdipmom1     0.0000000000E+00  1.0000000000E+00  0.0000000000E+00
                       0.0000000000E+00  1.0000000000E+00  0.0000000000E+00
        nucdipmom2     0.0000000000E+00  1.0000000000E+00  0.0000000000E+00
                       0.0000000000E+00 -1.0000000000E+00  0.0000000000E+00
        nucdipmom3     0.0000000000E+00  0.0000000000E+00  1.0000000000E+00
                       0.0000000000E+00  0.0000000000E+00  1.0000000000E+00
        nucdipmom4     0.0000000000E+00  0.0000000000E+00  1.0000000000E+00
                       0.0000000000E+00  0.0000000000E+00 -1.0000000000E+00
              occ      1.000000  1.000000  1.000000  1.000000  1.000000  1.000000
                       1.000000  1.000000  1.000000  1.000000  1.000000  1.000000
                       1.000000  1.000000  0.000000  0.000000
        optforces           0
        optstress           0
        pawcpxocc           2
        pawecutdg      2.00000000E+01 Hartree
          pawovlp     -1.0000000000E+00
        pawspnorb           1
           prtden           0
        prtebands           0
           prteig           0
            prtwf           0
          spgroup1          1
          spgroup2          1
          spgroup3         75
          spgroup4         75
           symafm1       1
           symafm2       1
           symafm3       1    1    1    1
           symafm4       1    1    1    1
           symrel1     1  0  0   0  1  0   0  0  1
           symrel2     1  0  0   0  1  0   0  0  1
           symrel3     1  0  0   0  1  0   0  0  1      -1  0  0   0 -1  0   0  0  1
                       0  1  0  -1  0  0   0  0  1       0 -1  0   1  0  0   0  0  1
           symrel4     1  0  0   0  1  0   0  0  1      -1  0  0   0 -1  0   0  0  1
                       0  1  0  -1  0  0   0  0  1       0 -1  0   1  0  0   0  0  1
            tnons1     0.0000000  0.0000000  0.0000000
            tnons2     0.0000000  0.0000000  0.0000000
            tnons3     0.0000000  0.0000000  0.0000000     0.0000000  0.0000000  0.0000000
                       0.0000000  0.0000000  0.0000000     0.0000000  0.0000000  0.0000000
            tnons4     0.0000000  0.0000000  0.0000000     0.0000000  0.0000000  0.0000000
                       0.0000000  0.0000000  0.0000000     0.0000000  0.0000000  0.0000000
           toldfe      1.00000000E-11 Hartree
            typat      1  2
           useylm           1
           xangst      0.0000000000E+00  0.0000000000E+00  0.0000000000E+00
                       0.0000000000E+00  0.0000000000E+00  1.6300000000E+00
            xcart      0.0000000000E+00  0.0000000000E+00  0.0000000000E+00
                       0.0000000000E+00  0.0000000000E+00  3.0802535966E+00
             xred      0.0000000000E+00  0.0000000000E+00  0.0000000000E+00
                       0.0000000000E+00  0.0000000000E+00  1.6300000000E-01
            znucl       17.00000    9.00000
             zora           2

================================================================================

 chkinp: Checking input parameters for consistency, jdtset=   1.

 chkinp: Checking input parameters for consistency, jdtset=   2.

 chkinp: Checking input parameters for consistency, jdtset=   3.

 chkinp: Checking input parameters for consistency, jdtset=   4.

================================================================================
== DATASET  1 ==================================================================
-   mpi_nproc: 1, omp_nthreads: -1 (-1 if OMP is not activated)


--- !DatasetInfo
iteration_state: {dtset: 1, }
dimensions: {natom: 2, nkpt: 1, mband: 16, nsppol: 1, nspinor: 2, nspden: 1, mpw: 10131, }
cutoff_energies: {ecut:  10.0, pawecutdg:  20.0, }
electrons: {nelect:   1.40000000E+01, charge:   0.00000000E+00, occopt:   1.00000000E+00, tsmear:   1.00000000E-02, }
meta: {optdriver: 0, ionmov: 0, optcell: 0, iscf: 17, paral_kgb: 0, }
...

 Real(R)+Recip(G) space primitive vectors, cartesian coordinates (Bohr,Bohr^-1):
 R(1)= 18.8972613  0.0000000  0.0000000  G(1)=  0.0529177  0.0000000  0.0000000
 R(2)=  0.0000000 18.8972613  0.0000000  G(2)=  0.0000000  0.0529177  0.0000000
 R(3)=  0.0000000  0.0000000 18.8972613  G(3)=  0.0000000  0.0000000  0.0529177
 Unit cell volume ucvol=  6.7483346E+03 bohr^3
 Angles (23,13,12)=  9.00000000E+01  9.00000000E+01  9.00000000E+01 degrees

 Coarse grid specifications (used for wave-functions):

 getcut: wavevector=  0.0000  0.0000  0.0000  ngfft=  54  54  54
         ecut(hartree)=     10.000   => boxcut(ratio)=   2.00738

 Fine grid specifications (used for densities):

 getcut: wavevector=  0.0000  0.0000  0.0000  ngfft=  80  80  80
         ecut(hartree)=     20.000   => boxcut(ratio)=   2.10286

--- Pseudopotential description ------------------------------------------------
- pspini: atom type   1  psp file is /home/buildbot/ABINIT3/eos_gnu_13.2_serial/jzwanzig_j-doc/tests/Pspdir/Psdj_paw_pbe_std/Cl.xml
- pspatm: opening atomic psp file    /home/buildbot/ABINIT3/eos_gnu_13.2_serial/jzwanzig_j-doc/tests/Pspdir/Psdj_paw_pbe_std/Cl.xml
- pspatm : Reading pseudopotential header in XML form from /home/buildbot/ABINIT3/eos_gnu_13.2_serial/jzwanzig_j-doc/tests/Pspdir/Psdj_paw_pbe_std/Cl.xml
 Pseudopotential format is: paw10
 basis_size (lnmax)=  4 (lmn_size=  8), orbitals=   0   0   1   1
 Spheres core radius: rc_sph= 1.80315674
 1 radial meshes are used:
  - mesh 1: r(i)=AA*[exp(BB*(i-1))-1], size=1400 , AA= 0.50355E-03 BB= 0.85603E-02
 Shapefunction is SIN type: shapef(r)=[sin(pi*r/rshp)/(pi*r/rshp)]**2
 Radius for shape functions =  1.61320365
 mmax= 1400
 Radial grid used for partial waves is grid 1
 Radial grid used for projectors is grid 1
 Radial grid used for (t)core density is grid 1
 Radial grid used for Vloc is grid 1
 Radial grid used for pseudo valence density is grid 1
 Mesh size for Vloc has been set to 1238 to avoid numerical noise.
 Compensation charge density is not taken into account in XC energy/potential
 pspatm: atomic psp has been read  and splines computed

- pspini: atom type   2  psp file is /home/buildbot/ABINIT3/eos_gnu_13.2_serial/jzwanzig_j-doc/tests/Pspdir/Psdj_paw_pbe_std/F.xml
- pspatm: opening atomic psp file    /home/buildbot/ABINIT3/eos_gnu_13.2_serial/jzwanzig_j-doc/tests/Pspdir/Psdj_paw_pbe_std/F.xml
- pspatm : Reading pseudopotential header in XML form from /home/buildbot/ABINIT3/eos_gnu_13.2_serial/jzwanzig_j-doc/tests/Pspdir/Psdj_paw_pbe_std/F.xml
 Pseudopotential format is: paw10
 basis_size (lnmax)=  4 (lmn_size=  8), orbitals=   0   0   1   1
 Spheres core radius: rc_sph= 1.40288605
 1 radial meshes are used:
  - mesh 1: r(i)=AA*[exp(BB*(i-1))-1], size=2001 , AA= 0.65105E-03 BB= 0.58595E-02
 Shapefunction is SIN type: shapef(r)=[sin(pi*r/rshp)/(pi*r/rshp)]**2
 Radius for shape functions =  1.20455331
 mmax= 2001
 Radial grid used for partial waves is grid 1
 Radial grid used for projectors is grid 1
 Radial grid used for (t)core density is grid 1
 Radial grid used for Vloc is grid 1
 Radial grid used for pseudo valence density is grid 1
 Mesh size for Vloc has been set to 1764 to avoid numerical noise.
 Compensation charge density is not taken into account in XC energy/potential
 pspatm: atomic psp has been read  and splines computed

   1.28564217E+02                                ecore*ucvol(ha*bohr**3)
--------------------------------------------------------------------------------

_setup2: Arith. and geom. avg. npw (full set) are   10131.000   10131.000

================================================================================

--- !BeginCycle
iteration_state: {dtset: 1, }
solver: {iscf: 17, nstep: 20, nline: 4, wfoptalg: 10, }
tolerances: {toldfe: 1.00E-11, }
...

     iter   Etot(hartree)      deltaE(h)  residm     nres2
 ETOT  1  -39.044247895344    -3.904E+01 5.560E-02 8.386E+00
 ETOT  2  -39.199048217367    -1.548E-01 8.947E-03 4.810E+00
 ETOT  3  -39.162485437661     3.656E-02 3.561E-03 3.144E-01
 ETOT  4  -39.163686144579    -1.201E-03 3.292E-04 2.507E-01
 ETOT  5  -39.162090908494     1.595E-03 1.282E-04 2.275E-02
 ETOT  6  -39.162048690367     4.222E-05 2.377E-06 1.902E-03
 ETOT  7  -39.162040365176     8.325E-06 6.683E-08 9.229E-04
 ETOT  8  -39.162036968753     3.396E-06 4.063E-07 1.573E-04
 ETOT  9  -39.162060207388    -2.324E-05 5.531E-08 8.642E-05
 ETOT 10  -39.162095526991    -3.532E-05 4.523E-08 4.545E-05
 ETOT 11  -39.162141346539    -4.582E-05 6.027E-08 2.333E-05
 ETOT 12  -39.162177107394    -3.576E-05 7.837E-08 8.750E-06
 ETOT 13  -39.162194694106    -1.759E-05 2.257E-08 4.980E-06
 ETOT 14  -39.162204875491    -1.018E-05 2.855E-09 3.252E-06
 ETOT 15  -39.162219409866    -1.453E-05 6.536E-09 1.807E-06
 ETOT 16  -39.162232976332    -1.357E-05 5.845E-09 7.898E-07
 ETOT 17  -39.162241328834    -8.353E-06 1.540E-09 4.001E-07
 ETOT 18  -39.162252352077    -1.102E-05 4.627E-09 8.803E-08
 ETOT 19  -39.162255222873    -2.871E-06 8.084E-10 2.791E-08
 ETOT 20  -39.162256582114    -1.359E-06 2.760E-10 7.984E-09

 scprqt:  WARNING -
  nstep=   20 was not enough SCF cycles to converge;
  maximum energy difference=  1.359E-06 exceeds toldfe=  1.000E-11


--- !ResultsGS
iteration_state: {dtset: 1, }
comment   : Summary of ground state results
lattice_vectors:
- [ 18.8972613,   0.0000000,   0.0000000, ]
- [  0.0000000,  18.8972613,   0.0000000, ]
- [  0.0000000,   0.0000000,  18.8972613, ]
lattice_lengths: [  18.89726,   18.89726,   18.89726, ]
lattice_angles: [ 90.000,  90.000,  90.000, ] # degrees, (23, 13, 12)
lattice_volume:   6.7483346E+03
convergence: {deltae: -1.359E-06, res2:  7.984E-09, residm:  2.760E-10, diffor:  0.000E+00, }
etotal    :  -3.91622566E+01
entropy   :   0.00000000E+00
fermie    :  -2.76568407E-01
cartesian_stress_tensor: null
pressure_GPa: null
xred      :
- [  0.0000E+00,   0.0000E+00,   0.0000E+00, Cl]
- [  0.0000E+00,   0.0000E+00,   1.6300E-01,  F]
cartesian_forces: null
force_length_stats: {min: null, max: null, mean: null, }
...

 Integrated electronic density in atomic spheres:
 ------------------------------------------------
 Atom  Sphere_radius  Integrated_density
    1        1.80316          4.29401010
    2        1.40289          5.68496671

 PAW TEST:
 ==== Compensation charge inside spheres ============
 The following values must be close to each other ...
 Compensation charge over spherical meshes =      0.029347788530336
 Compensation charge over fine fft grid    =      0.029545936924956

 ==== Results concerning PAW augmentation regions ====

 Total pseudopotential strength Dij (hartree):
 Atom #  1 - Component up-up
   === REAL PART:
   2.66103   0.17855  -0.00000   0.00164   0.00000  -0.00000  -0.00954  -0.00000
   0.17855  12.38405  -0.00000   0.00353   0.00000  -0.00000   0.01230   0.00000
  -0.00000  -0.00000   0.51830   0.00012   0.00000  -0.09481   0.00030  -0.00000
   0.00164   0.00353   0.00012   0.51971  -0.00000   0.00030  -0.09950   0.00000
   0.00000   0.00000   0.00000  -0.00000   0.51830  -0.00000   0.00000  -0.09481
  -0.00000  -0.00000  -0.09481   0.00030  -0.00000 -29.06920   0.00141   0.00000
  -0.00954   0.01230   0.00030  -0.09950   0.00000   0.00141 -29.09851  -0.00000
  -0.00000   0.00000  -0.00000   0.00000  -0.09481   0.00000  -0.00000 -29.06920
   === IMAGINARY PART:
  -0.00000  -0.00000  -0.00000  -0.00000  -0.00000  -0.00000  -0.00000  -0.00000
   0.00000  -0.00000  -0.00000  -0.00000  -0.00000  -0.00000  -0.00000  -0.00000
   0.00000   0.00000  -0.00000  -0.00000  -0.00151  -0.00000  -0.00000  -0.00350
   0.00000   0.00000   0.00000  -0.00000   0.00036  -0.00000  -0.00000   0.00100
   0.00000   0.00000   0.00151  -0.00036  -0.00000   0.00350  -0.00100  -0.00000
   0.00000   0.00000   0.00000   0.00000  -0.00350  -0.00000  -0.00000  -0.01115
   0.00000   0.00000   0.00000   0.00000   0.00100   0.00000  -0.00000   0.00128
   0.00000   0.00000   0.00350  -0.00100   0.00000   0.01115  -0.00128  -0.00000
 Atom #  1 - Component dwn-dwn
   === REAL PART:
   2.66103   0.17855  -0.00000   0.00164   0.00000  -0.00000  -0.00954  -0.00000
   0.17855  12.38405  -0.00000   0.00353   0.00000  -0.00000   0.01230   0.00000
  -0.00000  -0.00000   0.51830  -0.00012   0.00000  -0.09481  -0.00030  -0.00000
   0.00164   0.00353  -0.00012   0.51971  -0.00000  -0.00030  -0.09950   0.00000
   0.00000   0.00000   0.00000  -0.00000   0.51830  -0.00000   0.00000  -0.09481
  -0.00000  -0.00000  -0.09481  -0.00030  -0.00000 -29.06920  -0.00141   0.00000
  -0.00954   0.01230  -0.00030  -0.09950   0.00000  -0.00141 -29.09851  -0.00000
  -0.00000   0.00000  -0.00000   0.00000  -0.09481   0.00000  -0.00000 -29.06920
   === IMAGINARY PART:
  -0.00000  -0.00000  -0.00000  -0.00000  -0.00000  -0.00000  -0.00000  -0.00000
   0.00000  -0.00000  -0.00000  -0.00000  -0.00000  -0.00000  -0.00000  -0.00000
   0.00000   0.00000  -0.00000  -0.00000   0.00151  -0.00000  -0.00000   0.00350
   0.00000   0.00000   0.00000  -0.00000   0.00036  -0.00000  -0.00000   0.00100
   0.00000   0.00000  -0.00151  -0.00036  -0.00000  -0.00350  -0.00100  -0.00000
   0.00000   0.00000   0.00000   0.00000   0.00350  -0.00000  -0.00000   0.01115
   0.00000   0.00000   0.00000   0.00000   0.00100   0.00000  -0.00000   0.00128
   0.00000   0.00000  -0.00350  -0.00100   0.00000  -0.01115  -0.00128  -0.00000
 Atom #  1 - Component up-dwn
   === REAL PART:
   0.00000   0.00000   0.00000   0.00000   0.00000   0.00000   0.00000   0.00000
   0.00000   0.00000   0.00000   0.00000   0.00000   0.00000   0.00000   0.00000
   0.00000   0.00000   0.00000   0.00000   0.00012   0.00000   0.00000   0.00030
   0.00000   0.00000   0.00000   0.00000   0.00151   0.00000   0.00000   0.00350
   0.00000   0.00000   0.00012  -0.00151   0.00000   0.00030  -0.00350   0.00000
   0.00000   0.00000   0.00000   0.00000   0.00030   0.00000   0.00000   0.00141
   0.00000   0.00000   0.00000   0.00000   0.00350   0.00000   0.00000   0.01115
   0.00000   0.00000   0.00030  -0.00350   0.00000   0.00141  -0.01115   0.00000
   === IMAGINARY PART:
  -0.00275   0.00296  -0.00000  -0.00000  -0.00000  -0.00000  -0.00000  -0.00000
   0.00296  -0.00320  -0.00000  -0.00000  -0.00000  -0.00000  -0.00000  -0.00000
   0.00000   0.00000  -0.00016   0.00151  -0.00000  -0.00040   0.00350  -0.00000
   0.00000   0.00000  -0.00151   0.00008  -0.00000  -0.00350   0.00020  -0.00000
   0.00000   0.00000   0.00000   0.00000   0.00008  -0.00000  -0.00000   0.00020
   0.00000   0.00000  -0.00040   0.00350   0.00000  -0.00189   0.01115  -0.00000
   0.00000   0.00000  -0.00350   0.00020   0.00000  -0.01115   0.00094  -0.00000
   0.00000   0.00000   0.00000   0.00000   0.00020   0.00000   0.00000   0.00094
 Atom #  1 - Component dwn-up
   === REAL PART:
   0.00000   0.00000   0.00000   0.00000   0.00000   0.00000   0.00000   0.00000
   0.00000   0.00000   0.00000   0.00000   0.00000   0.00000   0.00000   0.00000
   0.00000   0.00000   0.00000   0.00000   0.00012   0.00000   0.00000   0.00030
   0.00000   0.00000   0.00000   0.00000  -0.00151   0.00000   0.00000  -0.00350
   0.00000   0.00000   0.00012   0.00151   0.00000   0.00030   0.00350   0.00000
   0.00000   0.00000   0.00000   0.00000   0.00030   0.00000   0.00000   0.00141
   0.00000   0.00000   0.00000   0.00000  -0.00350   0.00000   0.00000  -0.01115
   0.00000   0.00000   0.00030   0.00350   0.00000   0.00141   0.01115   0.00000
   === IMAGINARY PART:
   0.00275  -0.00296  -0.00000  -0.00000  -0.00000  -0.00000  -0.00000  -0.00000
  -0.00296   0.00320  -0.00000  -0.00000  -0.00000  -0.00000  -0.00000  -0.00000
   0.00000   0.00000   0.00016   0.00151  -0.00000   0.00040   0.00350  -0.00000
   0.00000   0.00000  -0.00151  -0.00008  -0.00000  -0.00350  -0.00020  -0.00000
   0.00000   0.00000   0.00000   0.00000  -0.00008  -0.00000  -0.00000  -0.00020
   0.00000   0.00000   0.00040   0.00350   0.00000   0.00189   0.01115  -0.00000
   0.00000   0.00000  -0.00350  -0.00020   0.00000  -0.01115  -0.00094  -0.00000
   0.00000   0.00000   0.00000   0.00000  -0.00020   0.00000   0.00000  -0.00094
 Atom #  2 - Component up-up
   === REAL PART:
   0.35676  -0.57402   0.00000   0.00621  -0.00000  -0.00000  -0.02024   0.00000
  -0.57402   1.04208  -0.00000  -0.00969   0.00000   0.00000   0.03098  -0.00000
   0.00000  -0.00000  -0.61660   0.00012   0.00000   1.12994  -0.00035  -0.00000
   0.00621  -0.00969   0.00012  -0.62661   0.00000  -0.00035   1.15781  -0.00000
  -0.00000   0.00000   0.00000   0.00000  -0.61660  -0.00000  -0.00000   1.12994
  -0.00000   0.00000   1.12994  -0.00035  -0.00000  -0.98675   0.00100   0.00000
  -0.02024   0.03098  -0.00035   1.15781  -0.00000   0.00100  -1.06118   0.00000
   0.00000  -0.00000  -0.00000  -0.00000   1.12994   0.00000   0.00000  -0.98675
   === IMAGINARY PART:
  -0.00000  -0.00000  -0.00000  -0.00000  -0.00000  -0.00000  -0.00000  -0.00000
   0.00000  -0.00000  -0.00000  -0.00000  -0.00000  -0.00000  -0.00000  -0.00000
   0.00000   0.00000  -0.00000  -0.00000  -0.00078  -0.00000  -0.00000   0.00224
   0.00000   0.00000   0.00000  -0.00000   0.00034  -0.00000  -0.00000  -0.00102
   0.00000   0.00000   0.00078  -0.00034  -0.00000  -0.00224   0.00102  -0.00000
   0.00000   0.00000   0.00000   0.00000   0.00224  -0.00000  -0.00000  -0.00650
   0.00000   0.00000   0.00000   0.00000  -0.00102   0.00000  -0.00000   0.00302
   0.00000   0.00000  -0.00224   0.00102   0.00000   0.00650  -0.00302  -0.00000
 Atom #  2 - Component dwn-dwn
   === REAL PART:
   0.35676  -0.57402   0.00000   0.00621  -0.00000  -0.00000  -0.02024   0.00000
  -0.57402   1.04208  -0.00000  -0.00969   0.00000   0.00000   0.03098  -0.00000
   0.00000  -0.00000  -0.61660  -0.00012   0.00000   1.12994   0.00035  -0.00000
   0.00621  -0.00969  -0.00012  -0.62661   0.00000   0.00035   1.15781  -0.00000
  -0.00000   0.00000   0.00000   0.00000  -0.61660  -0.00000  -0.00000   1.12994
  -0.00000   0.00000   1.12994   0.00035  -0.00000  -0.98675  -0.00100   0.00000
  -0.02024   0.03098   0.00035   1.15781  -0.00000  -0.00100  -1.06118   0.00000
   0.00000  -0.00000  -0.00000  -0.00000   1.12994   0.00000   0.00000  -0.98675
   === IMAGINARY PART:
  -0.00000  -0.00000  -0.00000  -0.00000  -0.00000  -0.00000  -0.00000  -0.00000
   0.00000  -0.00000  -0.00000  -0.00000  -0.00000  -0.00000  -0.00000  -0.00000
   0.00000   0.00000  -0.00000  -0.00000   0.00078  -0.00000  -0.00000  -0.00224
   0.00000   0.00000   0.00000  -0.00000   0.00034  -0.00000  -0.00000  -0.00102
   0.00000   0.00000  -0.00078  -0.00034  -0.00000   0.00224   0.00102  -0.00000
   0.00000   0.00000   0.00000   0.00000  -0.00224  -0.00000  -0.00000   0.00650
   0.00000   0.00000   0.00000   0.00000  -0.00102   0.00000  -0.00000   0.00302
   0.00000   0.00000   0.00224   0.00102   0.00000  -0.00650  -0.00302  -0.00000
 Atom #  2 - Component up-dwn
   === REAL PART:
   0.00000   0.00000   0.00000   0.00000   0.00000   0.00000   0.00000   0.00000
   0.00000   0.00000   0.00000   0.00000   0.00000   0.00000   0.00000   0.00000
   0.00000   0.00000   0.00000   0.00000   0.00012   0.00000   0.00000  -0.00035
   0.00000   0.00000   0.00000   0.00000   0.00078   0.00000   0.00000  -0.00224
   0.00000   0.00000   0.00012  -0.00078   0.00000  -0.00035   0.00224   0.00000
   0.00000   0.00000   0.00000   0.00000  -0.00035   0.00000   0.00000   0.00100
   0.00000   0.00000   0.00000   0.00000  -0.00224   0.00000   0.00000   0.00650
   0.00000   0.00000  -0.00035   0.00224   0.00000   0.00100  -0.00650   0.00000
   === IMAGINARY PART:
  -0.00266   0.00455  -0.00000  -0.00000  -0.00000  -0.00000  -0.00000  -0.00000
   0.00455  -0.00778  -0.00000  -0.00000  -0.00000  -0.00000  -0.00000  -0.00000
   0.00000   0.00000  -0.00017   0.00078  -0.00000   0.00046  -0.00224  -0.00000
   0.00000   0.00000  -0.00078   0.00008  -0.00000   0.00224  -0.00023  -0.00000
   0.00000   0.00000   0.00000   0.00000   0.00008  -0.00000  -0.00000  -0.00023
   0.00000   0.00000   0.00046  -0.00224   0.00000  -0.00133   0.00650  -0.00000
   0.00000   0.00000   0.00224  -0.00023   0.00000  -0.00650   0.00066  -0.00000
   0.00000   0.00000   0.00000   0.00000  -0.00023   0.00000   0.00000   0.00066
 Atom #  2 - Component dwn-up
   === REAL PART:
   0.00000   0.00000   0.00000   0.00000   0.00000   0.00000   0.00000   0.00000
   0.00000   0.00000   0.00000   0.00000   0.00000   0.00000   0.00000   0.00000
   0.00000   0.00000   0.00000   0.00000   0.00012   0.00000   0.00000  -0.00035
   0.00000   0.00000   0.00000   0.00000  -0.00078   0.00000   0.00000   0.00224
   0.00000   0.00000   0.00012   0.00078   0.00000  -0.00035  -0.00224   0.00000
   0.00000   0.00000   0.00000   0.00000  -0.00035   0.00000   0.00000   0.00100
   0.00000   0.00000   0.00000   0.00000   0.00224   0.00000   0.00000  -0.00650
   0.00000   0.00000  -0.00035  -0.00224   0.00000   0.00100   0.00650   0.00000
   === IMAGINARY PART:
   0.00266  -0.00455  -0.00000  -0.00000  -0.00000  -0.00000  -0.00000  -0.00000
  -0.00455   0.00778  -0.00000  -0.00000  -0.00000  -0.00000  -0.00000  -0.00000
   0.00000   0.00000   0.00017   0.00078  -0.00000  -0.00046  -0.00224  -0.00000
   0.00000   0.00000  -0.00078  -0.00008  -0.00000   0.00224   0.00023  -0.00000
   0.00000   0.00000   0.00000   0.00000  -0.00008  -0.00000  -0.00000   0.00023
   0.00000   0.00000  -0.00046  -0.00224   0.00000   0.00133   0.00650  -0.00000
   0.00000   0.00000   0.00224   0.00023   0.00000  -0.00650  -0.00066  -0.00000
   0.00000   0.00000   0.00000   0.00000   0.00023   0.00000   0.00000  -0.00066


 Augmentation waves occupancies Rhoij:
 Atom #  1 - Component dens (n)
   === REAL PART:
   2.00233  -0.00127  -0.00000  -0.21474  -0.00000   0.00000  -0.00066   0.00000
  -0.00127   0.00008   0.00000   0.00642   0.00000   0.00000   0.00004   0.00000
  -0.00000   0.00000   2.01384  -0.00000  -0.00000   0.00197  -0.00000  -0.00000
  -0.21474   0.00642  -0.00000   0.81893  -0.00000  -0.00000   0.00307   0.00000
  -0.00000   0.00000  -0.00000  -0.00000   2.01384  -0.00000   0.00000   0.00197
   0.00000   0.00000   0.00197  -0.00000  -0.00000   0.00001   0.00000  -0.00000
  -0.00066   0.00004  -0.00000   0.00307   0.00000   0.00000   0.00002   0.00000
   0.00000   0.00000  -0.00000   0.00000   0.00197  -0.00000   0.00000   0.00001
   === IMAGINARY PART:
   0.00000   0.00000  -0.00000   0.00000   0.00049   0.00000  -0.00000   0.00001
  -0.00000   0.00000   0.00000  -0.00000  -0.00002  -0.00000   0.00000  -0.00000
   0.00000  -0.00000   0.00000   0.00000  -0.00000  -0.00000  -0.00000  -0.00000
  -0.00000   0.00000  -0.00000   0.00000   0.00511  -0.00000   0.00000  -0.00002
  -0.00049   0.00002   0.00000  -0.00511  -0.00000  -0.00000   0.00007  -0.00000
  -0.00000   0.00000   0.00000   0.00000   0.00000   0.00000  -0.00000   0.00000
   0.00000  -0.00000   0.00000  -0.00000  -0.00007   0.00000   0.00000  -0.00000
  -0.00001   0.00000   0.00000   0.00002   0.00000  -0.00000   0.00000   0.00000
 Atom #  1 - Component magn (x)
   === REAL PART:
   0.00000   0.00000   0.00000   0.00000   0.00000   0.00000   0.00000   0.00000
   0.00000   0.00000   0.00000   0.00000   0.00000   0.00000   0.00000   0.00000
   0.00000   0.00000   0.00000   0.00000   0.00000   0.00000   0.00000   0.00000
   0.00000   0.00000   0.00000   0.00000   0.00000   0.00000   0.00000   0.00000
   0.00000   0.00000   0.00000   0.00000   0.00000   0.00000   0.00000   0.00000
   0.00000   0.00000   0.00000   0.00000   0.00000   0.00000   0.00000   0.00000
   0.00000   0.00000   0.00000   0.00000   0.00000   0.00000   0.00000   0.00000
   0.00000   0.00000   0.00000   0.00000   0.00000   0.00000   0.00000   0.00000
   === IMAGINARY PART:
  -0.00000  -0.00000  -0.00232   0.00000   0.00000  -0.00003   0.00000  -0.00000
   0.00000   0.00000   0.00009   0.00000  -0.00000   0.00000  -0.00000   0.00000
   0.00232  -0.00009  -0.00000   0.02107   0.00000   0.00000  -0.00029   0.00000
  -0.00000  -0.00000  -0.02107  -0.00000   0.00000   0.00008   0.00000   0.00000
  -0.00000   0.00000  -0.00000  -0.00000  -0.00000  -0.00000   0.00000   0.00000
   0.00003  -0.00000  -0.00000  -0.00008   0.00000   0.00000  -0.00000  -0.00000
  -0.00000   0.00000   0.00029  -0.00000  -0.00000   0.00000   0.00000  -0.00000
   0.00000  -0.00000  -0.00000  -0.00000  -0.00000   0.00000   0.00000  -0.00000
 Atom #  1 - Component magn (y)
   === REAL PART:
   0.00000   0.00000   0.00000   0.00000   0.00000   0.00000   0.00000   0.00000
   0.00000   0.00000   0.00000   0.00000   0.00000   0.00000   0.00000   0.00000
   0.00000   0.00000   0.00000   0.00000   0.00000   0.00000   0.00000   0.00000
   0.00000   0.00000   0.00000   0.00000   0.00000   0.00000   0.00000   0.00000
   0.00000   0.00000   0.00000   0.00000   0.00000   0.00000   0.00000   0.00000
   0.00000   0.00000   0.00000   0.00000   0.00000   0.00000   0.00000   0.00000
   0.00000   0.00000   0.00000   0.00000   0.00000   0.00000   0.00000   0.00000
   0.00000   0.00000   0.00000   0.00000   0.00000   0.00000   0.00000   0.00000
   === IMAGINARY PART:
  -0.00000   0.00000  -0.00000   0.00000   0.00232   0.00000  -0.00000   0.00003
  -0.00000  -0.00000   0.00000  -0.00000  -0.00009  -0.00000   0.00000  -0.00000
   0.00000  -0.00000  -0.00000   0.00000   0.00000   0.00000  -0.00000  -0.00000
  -0.00000   0.00000  -0.00000  -0.00000   0.02107  -0.00000  -0.00000  -0.00008
  -0.00232   0.00009  -0.00000  -0.02107  -0.00000  -0.00000   0.00029  -0.00000
  -0.00000   0.00000  -0.00000   0.00000   0.00000  -0.00000  -0.00000   0.00000
   0.00000  -0.00000   0.00000   0.00000  -0.00029   0.00000  -0.00000  -0.00000
  -0.00003   0.00000   0.00000   0.00008   0.00000  -0.00000   0.00000  -0.00000
 Atom #  1 - Component magn (z)
   === REAL PART:
   0.00000   0.00000   0.00000   0.00000   0.00000   0.00000   0.00000   0.00000
   0.00000   0.00000   0.00000   0.00000   0.00000   0.00000   0.00000   0.00000
   0.00000   0.00000   0.00000   0.00000   0.00000   0.00000   0.00000   0.00000
   0.00000   0.00000   0.00000   0.00000   0.00000   0.00000   0.00000   0.00000
   0.00000   0.00000   0.00000   0.00000   0.00000   0.00000   0.00000   0.00000
   0.00000   0.00000   0.00000   0.00000   0.00000   0.00000   0.00000   0.00000
   0.00000   0.00000   0.00000   0.00000   0.00000   0.00000   0.00000   0.00000
   0.00000   0.00000   0.00000   0.00000   0.00000   0.00000   0.00000   0.00000
   === IMAGINARY PART:
  -0.00000   0.00000   0.00000   0.00000  -0.00000   0.00000  -0.00000  -0.00000
  -0.00000  -0.00000  -0.00000  -0.00000   0.00000  -0.00000   0.00000   0.00000
  -0.00000   0.00000   0.00000  -0.00000  -0.01290   0.00000  -0.00000   0.00026
  -0.00000   0.00000   0.00000  -0.00000  -0.00000   0.00000   0.00000   0.00000
   0.00000  -0.00000   0.01290   0.00000   0.00000  -0.00026   0.00000  -0.00000
  -0.00000   0.00000  -0.00000  -0.00000   0.00026   0.00000   0.00000   0.00000
   0.00000  -0.00000   0.00000  -0.00000  -0.00000  -0.00000  -0.00000  -0.00000
   0.00000  -0.00000  -0.00026  -0.00000   0.00000  -0.00000   0.00000   0.00000
 Atom #  2 - Component dens (n)
   === REAL PART:
   2.05574   0.02057   0.00000   0.06310   0.00000   0.00000  -0.00079   0.00000
   0.02057   0.00359   0.00000  -0.06362  -0.00000   0.00000  -0.00689  -0.00000
   0.00000   0.00000   2.54448  -0.00000  -0.00000   0.17632  -0.00000  -0.00000
   0.06310  -0.06362  -0.00000   1.91949  -0.00000  -0.00000   0.17644  -0.00000
   0.00000  -0.00000  -0.00000  -0.00000   2.54448  -0.00000   0.00000   0.17632
   0.00000   0.00000   0.17632  -0.00000  -0.00000   0.01267  -0.00000  -0.00000
  -0.00079  -0.00689  -0.00000   0.17644   0.00000  -0.00000   0.01700   0.00000
   0.00000  -0.00000  -0.00000  -0.00000   0.17632  -0.00000   0.00000   0.01267
   === IMAGINARY PART:
   0.00000  -0.00000  -0.00000  -0.00000  -0.00004  -0.00000  -0.00000  -0.00002
   0.00000   0.00000   0.00000  -0.00000   0.00004   0.00000  -0.00000   0.00001
   0.00000  -0.00000  -0.00000  -0.00000   0.00000   0.00000  -0.00000   0.00000
   0.00000   0.00000   0.00000   0.00000   0.00048  -0.00000  -0.00000  -0.00005
   0.00004  -0.00004  -0.00000  -0.00048  -0.00000  -0.00000   0.00019   0.00000
   0.00000  -0.00000  -0.00000   0.00000   0.00000   0.00000  -0.00000   0.00000
   0.00000   0.00000   0.00000   0.00000  -0.00019   0.00000  -0.00000  -0.00002
   0.00002  -0.00001  -0.00000   0.00005  -0.00000  -0.00000   0.00002  -0.00000
 Atom #  2 - Component magn (x)
   === REAL PART:
   0.00000   0.00000   0.00000   0.00000   0.00000   0.00000   0.00000   0.00000
   0.00000   0.00000   0.00000   0.00000   0.00000   0.00000   0.00000   0.00000
   0.00000   0.00000   0.00000   0.00000   0.00000   0.00000   0.00000   0.00000
   0.00000   0.00000   0.00000   0.00000   0.00000   0.00000   0.00000   0.00000
   0.00000   0.00000   0.00000   0.00000   0.00000   0.00000   0.00000   0.00000
   0.00000   0.00000   0.00000   0.00000   0.00000   0.00000   0.00000   0.00000
   0.00000   0.00000   0.00000   0.00000   0.00000   0.00000   0.00000   0.00000
   0.00000   0.00000   0.00000   0.00000   0.00000   0.00000   0.00000   0.00000
   === IMAGINARY PART:
   0.00000  -0.00000  -0.00017  -0.00000   0.00000   0.00003  -0.00000   0.00000
   0.00000   0.00000   0.00010   0.00000  -0.00000  -0.00001  -0.00000  -0.00000
   0.00017  -0.00010   0.00000  -0.00077   0.00000  -0.00000  -0.00037   0.00000
   0.00000  -0.00000   0.00077   0.00000  -0.00000   0.00013   0.00000  -0.00000
  -0.00000   0.00000  -0.00000   0.00000  -0.00000  -0.00000   0.00000   0.00000
  -0.00003   0.00001   0.00000  -0.00013   0.00000  -0.00000  -0.00004   0.00000
   0.00000   0.00000   0.00037  -0.00000  -0.00000   0.00004  -0.00000  -0.00000
  -0.00000   0.00000  -0.00000   0.00000  -0.00000  -0.00000   0.00000  -0.00000
 Atom #  2 - Component magn (y)
   === REAL PART:
   0.00000   0.00000   0.00000   0.00000   0.00000   0.00000   0.00000   0.00000
   0.00000   0.00000   0.00000   0.00000   0.00000   0.00000   0.00000   0.00000
   0.00000   0.00000   0.00000   0.00000   0.00000   0.00000   0.00000   0.00000
   0.00000   0.00000   0.00000   0.00000   0.00000   0.00000   0.00000   0.00000
   0.00000   0.00000   0.00000   0.00000   0.00000   0.00000   0.00000   0.00000
   0.00000   0.00000   0.00000   0.00000   0.00000   0.00000   0.00000   0.00000
   0.00000   0.00000   0.00000   0.00000   0.00000   0.00000   0.00000   0.00000
   0.00000   0.00000   0.00000   0.00000   0.00000   0.00000   0.00000   0.00000
   === IMAGINARY PART:
  -0.00000  -0.00000  -0.00000  -0.00000   0.00017  -0.00000  -0.00000  -0.00003
   0.00000  -0.00000   0.00000  -0.00000  -0.00010   0.00000  -0.00000   0.00001
   0.00000  -0.00000  -0.00000  -0.00000   0.00000  -0.00000  -0.00000   0.00000
   0.00000   0.00000   0.00000  -0.00000  -0.00077   0.00000   0.00000  -0.00013
  -0.00017   0.00010  -0.00000   0.00077  -0.00000  -0.00000   0.00037   0.00000
   0.00000  -0.00000   0.00000  -0.00000   0.00000  -0.00000  -0.00000   0.00000
   0.00000   0.00000   0.00000  -0.00000  -0.00037   0.00000  -0.00000  -0.00004
   0.00003  -0.00001  -0.00000   0.00013  -0.00000  -0.00000   0.00004  -0.00000
 Atom #  2 - Component magn (z)
   === REAL PART:
   0.00000   0.00000   0.00000   0.00000   0.00000   0.00000   0.00000   0.00000
   0.00000   0.00000   0.00000   0.00000   0.00000   0.00000   0.00000   0.00000
   0.00000   0.00000   0.00000   0.00000   0.00000   0.00000   0.00000   0.00000
   0.00000   0.00000   0.00000   0.00000   0.00000   0.00000   0.00000   0.00000
   0.00000   0.00000   0.00000   0.00000   0.00000   0.00000   0.00000   0.00000
   0.00000   0.00000   0.00000   0.00000   0.00000   0.00000   0.00000   0.00000
   0.00000   0.00000   0.00000   0.00000   0.00000   0.00000   0.00000   0.00000
   0.00000   0.00000   0.00000   0.00000   0.00000   0.00000   0.00000   0.00000
   === IMAGINARY PART:
   0.00000  -0.00000   0.00000   0.00000  -0.00000   0.00000  -0.00000   0.00000
   0.00000   0.00000  -0.00000  -0.00000   0.00000  -0.00000   0.00000   0.00000
  -0.00000   0.00000   0.00000   0.00000  -0.00011   0.00000   0.00000   0.00036
  -0.00000   0.00000  -0.00000  -0.00000   0.00000  -0.00000  -0.00000   0.00000
   0.00000  -0.00000   0.00011  -0.00000  -0.00000  -0.00036  -0.00000  -0.00000
  -0.00000   0.00000  -0.00000   0.00000   0.00036  -0.00000   0.00000   0.00005
   0.00000  -0.00000  -0.00000   0.00000   0.00000  -0.00000  -0.00000   0.00000
  -0.00000  -0.00000  -0.00036  -0.00000   0.00000  -0.00005  -0.00000   0.00000


================================================================================

 ----iterations are completed or convergence reached----

 Mean square residual over all n,k,spin=   38.874E-12; max=  27.602E-11
 reduced coordinates (array xred) for    2 atoms
       0.000000000000      0.000000000000      0.000000000000
       0.000000000000      0.000000000000      0.163000000000
 rms dE/dt=  0.0000E+00; max dE/dt=  0.0000E+00; dE/dt below (all hartree)
    1       0.000000000000      0.000000000000      0.000000000000
    2       0.000000000000      0.000000000000      0.000000000000

 cartesian coordinates (angstrom) at end:
    1      0.00000000000000     0.00000000000000     0.00000000000000
    2      0.00000000000000     0.00000000000000     1.63000000000000
 length scales= 18.897261328856 18.897261328856 18.897261328856 bohr
              = 10.000000000000 10.000000000000 10.000000000000 angstroms
 Fermi (or HOMO) energy (hartree) =  -0.27657   Average Vxc (hartree)=  -0.03283
 Eigenvalues (hartree) for nkpt=   1  k points:
 kpt#   1, nband= 16, wtk=  1.00000, kpt=  0.0000  0.0000  0.0000 (reduced coord)
  -1.19038   -1.18550   -0.77199   -0.76662   -0.49548   -0.49506   -0.42121   -0.42080
  -0.41943   -0.41943   -0.27958   -0.27908   -0.27657   -0.27657   -0.15575   -0.15541

--- !EnergyTerms
iteration_state     : {dtset: 1, }
comment             : Components of total free energy in Hartree
kinetic             :  1.64222379278425E+01
hartree             :  3.47174260063594E+01
xc                  : -7.15942317089423E+00
Ewald energy        :  1.34374587046587E+00
psp_core            :  1.90512511514595E-02
local_psp           : -8.79815859689936E+01
PAW spherical_terms :  3.47635860209134E+00
nucl. magn. dipoles : -4.68849027500967E-07
total_energy        : -3.91621899508263E+01
total_energy_eV     : -1.06565738355017E+03
...


--- !EnergyTermsDC
iteration_state     : {dtset: 1, }
comment             : '"Double-counting" decomposition of free energy'
band_energy         : -7.69769070432121E+00
Ewald energy        :  1.34374587046587E+00
psp_core            :  1.90512511514595E-02
xc_dc               : -3.27002049566367E+01
PAW spherical_terms : -1.27158042773496E-01
total_energy_dc     : -3.91622565821141E+01
total_energy_dc_eV  : -1.06565919667972E+03
...


--- !EnergyTermsWithPAWCore
iteration_state     : {dtset: 1, }
comment             : 'Components of total free energy, including PAW core contributions'
Total energy        : -5.61040547632228E+02
Total energy DC     : -5.61040614263516E+02
Total energy (eV)   : -1.52666897026452E+04
Total energy DC (eV): -1.52666915157747E+04
...


================================================================================
== DATASET  2 ==================================================================
-   mpi_nproc: 1, omp_nthreads: -1 (-1 if OMP is not activated)


--- !DatasetInfo
iteration_state: {dtset: 2, }
dimensions: {natom: 2, nkpt: 1, mband: 16, nsppol: 1, nspinor: 2, nspden: 1, mpw: 10131, }
cutoff_energies: {ecut:  10.0, pawecutdg:  20.0, }
electrons: {nelect:   1.40000000E+01, charge:   0.00000000E+00, occopt:   1.00000000E+00, tsmear:   1.00000000E-02, }
meta: {optdriver: 0, ionmov: 0, optcell: 0, iscf: 17, paral_kgb: 0, }
...

 Real(R)+Recip(G) space primitive vectors, cartesian coordinates (Bohr,Bohr^-1):
 R(1)= 18.8972613  0.0000000  0.0000000  G(1)=  0.0529177  0.0000000  0.0000000
 R(2)=  0.0000000 18.8972613  0.0000000  G(2)=  0.0000000  0.0529177  0.0000000
 R(3)=  0.0000000  0.0000000 18.8972613  G(3)=  0.0000000  0.0000000  0.0529177
 Unit cell volume ucvol=  6.7483346E+03 bohr^3
 Angles (23,13,12)=  9.00000000E+01  9.00000000E+01  9.00000000E+01 degrees

 Coarse grid specifications (used for wave-functions):

 getcut: wavevector=  0.0000  0.0000  0.0000  ngfft=  54  54  54
         ecut(hartree)=     10.000   => boxcut(ratio)=   2.00738

 Fine grid specifications (used for densities):

 getcut: wavevector=  0.0000  0.0000  0.0000  ngfft=  80  80  80
         ecut(hartree)=     20.000   => boxcut(ratio)=   2.10286
--------------------------------------------------------------------------------

_setup2: Arith. and geom. avg. npw (full set) are   10131.000   10131.000

================================================================================

--- !BeginCycle
iteration_state: {dtset: 2, }
solver: {iscf: 17, nstep: 20, nline: 4, wfoptalg: 10, }
tolerances: {toldfe: 1.00E-11, }
...

     iter   Etot(hartree)      deltaE(h)  residm     nres2
 ETOT  1  -39.043707332163    -3.904E+01 5.576E-02 8.396E+00
 ETOT  2  -39.199181474975    -1.555E-01 8.058E-03 4.826E+00
 ETOT  3  -39.162493882103     3.669E-02 3.568E-03 3.154E-01
 ETOT  4  -39.163691741998    -1.198E-03 3.320E-04 2.514E-01
 ETOT  5  -39.162092508551     1.599E-03 1.290E-04 2.270E-02
 ETOT  6  -39.162050727175     4.178E-05 2.343E-06 1.907E-03
 ETOT  7  -39.162042280821     8.446E-06 6.728E-08 9.191E-04
 ETOT  8  -39.162038702876     3.578E-06 4.019E-07 1.576E-04
 ETOT  9  -39.162061905949    -2.320E-05 5.559E-08 8.651E-05
 ETOT 10  -39.162097292996    -3.539E-05 4.542E-08 4.528E-05
 ETOT 11  -39.162143007221    -4.571E-05 6.004E-08 2.331E-05
 ETOT 12  -39.162178782529    -3.578E-05 7.852E-08 8.749E-06
 ETOT 13  -39.162196401454    -1.762E-05 2.265E-08 4.969E-06
 ETOT 14  -39.162206515785    -1.011E-05 2.821E-09 3.251E-06
 ETOT 15  -39.162221069471    -1.455E-05 6.534E-09 1.808E-06
 ETOT 16  -39.162234620266    -1.355E-05 5.824E-09 7.906E-07
 ETOT 17  -39.162242946868    -8.327E-06 1.525E-09 4.018E-07
 ETOT 18  -39.162254004576    -1.106E-05 4.630E-09 8.834E-08
 ETOT 19  -39.162256882507    -2.878E-06 8.091E-10 2.798E-08
 ETOT 20  -39.162258242395    -1.360E-06 2.760E-10 8.156E-09

 scprqt:  WARNING -
  nstep=   20 was not enough SCF cycles to converge;
  maximum energy difference=  1.360E-06 exceeds toldfe=  1.000E-11


--- !ResultsGS
iteration_state: {dtset: 2, }
comment   : Summary of ground state results
lattice_vectors:
- [ 18.8972613,   0.0000000,   0.0000000, ]
- [  0.0000000,  18.8972613,   0.0000000, ]
- [  0.0000000,   0.0000000,  18.8972613, ]
lattice_lengths: [  18.89726,   18.89726,   18.89726, ]
lattice_angles: [ 90.000,  90.000,  90.000, ] # degrees, (23, 13, 12)
lattice_volume:   6.7483346E+03
convergence: {deltae: -1.360E-06, res2:  8.156E-09, residm:  2.760E-10, diffor:  0.000E+00, }
etotal    :  -3.91622582E+01
entropy   :   0.00000000E+00
fermie    :  -2.76569178E-01
cartesian_stress_tensor: null
pressure_GPa: null
xred      :
- [  0.0000E+00,   0.0000E+00,   0.0000E+00, Cl]
- [  0.0000E+00,   0.0000E+00,   1.6300E-01,  F]
cartesian_forces: null
force_length_stats: {min: null, max: null, mean: null, }
...

 Integrated electronic density in atomic spheres:
 ------------------------------------------------
 Atom  Sphere_radius  Integrated_density
    1        1.80316          4.29401146
    2        1.40289          5.68496618

 PAW TEST:
 ==== Compensation charge inside spheres ============
 The following values must be close to each other ...
 Compensation charge over spherical meshes =      0.029347359594912
 Compensation charge over fine fft grid    =      0.029545278592104

 ==== Results concerning PAW augmentation regions ====

 Total pseudopotential strength Dij (hartree):
 Atom #  1 - Component up-up
   === REAL PART:
   2.66103   0.17855  -0.00000   0.00164   0.00000  -0.00000  -0.00954  -0.00000
   0.17855  12.38405  -0.00000   0.00353   0.00000  -0.00000   0.01230   0.00000
  -0.00000  -0.00000   0.51830   0.00012   0.00000  -0.09481   0.00030  -0.00000
   0.00164   0.00353   0.00012   0.51971  -0.00000   0.00030  -0.09950   0.00000
   0.00000   0.00000   0.00000  -0.00000   0.51830  -0.00000   0.00000  -0.09481
  -0.00000  -0.00000  -0.09481   0.00030  -0.00000 -29.06920   0.00141   0.00000
  -0.00954   0.01230   0.00030  -0.09950   0.00000   0.00141 -29.09851  -0.00000
  -0.00000   0.00000  -0.00000   0.00000  -0.09481   0.00000  -0.00000 -29.06920
   === IMAGINARY PART:
  -0.00000  -0.00000  -0.00000  -0.00000  -0.00000  -0.00000  -0.00000  -0.00000
   0.00000  -0.00000  -0.00000  -0.00000  -0.00000  -0.00000  -0.00000  -0.00000
   0.00000   0.00000  -0.00000  -0.00000  -0.00151  -0.00000  -0.00000  -0.00350
   0.00000   0.00000   0.00000  -0.00000   0.00036  -0.00000  -0.00000   0.00100
   0.00000   0.00000   0.00151  -0.00036  -0.00000   0.00350  -0.00100  -0.00000
   0.00000   0.00000   0.00000   0.00000  -0.00350  -0.00000  -0.00000  -0.01115
   0.00000   0.00000   0.00000   0.00000   0.00100   0.00000  -0.00000   0.00128
   0.00000   0.00000   0.00350  -0.00100   0.00000   0.01115  -0.00128  -0.00000
 Atom #  1 - Component dwn-dwn
   === REAL PART:
   2.66103   0.17855  -0.00000   0.00164   0.00000  -0.00000  -0.00954  -0.00000
   0.17855  12.38405  -0.00000   0.00353   0.00000  -0.00000   0.01230   0.00000
  -0.00000  -0.00000   0.51830  -0.00012   0.00000  -0.09481  -0.00030  -0.00000
   0.00164   0.00353  -0.00012   0.51971  -0.00000  -0.00030  -0.09950   0.00000
   0.00000   0.00000   0.00000  -0.00000   0.51830  -0.00000   0.00000  -0.09481
  -0.00000  -0.00000  -0.09481  -0.00030  -0.00000 -29.06920  -0.00141   0.00000
  -0.00954   0.01230  -0.00030  -0.09950   0.00000  -0.00141 -29.09851  -0.00000
  -0.00000   0.00000  -0.00000   0.00000  -0.09481   0.00000  -0.00000 -29.06920
   === IMAGINARY PART:
  -0.00000  -0.00000  -0.00000  -0.00000  -0.00000  -0.00000  -0.00000  -0.00000
   0.00000  -0.00000  -0.00000  -0.00000  -0.00000  -0.00000  -0.00000  -0.00000
   0.00000   0.00000  -0.00000  -0.00000   0.00151  -0.00000  -0.00000   0.00350
   0.00000   0.00000   0.00000  -0.00000   0.00036  -0.00000  -0.00000   0.00100
   0.00000   0.00000  -0.00151  -0.00036  -0.00000  -0.00350  -0.00100  -0.00000
   0.00000   0.00000   0.00000   0.00000   0.00350  -0.00000  -0.00000   0.01115
   0.00000   0.00000   0.00000   0.00000   0.00100   0.00000  -0.00000   0.00128
   0.00000   0.00000  -0.00350  -0.00100   0.00000  -0.01115  -0.00128  -0.00000
 Atom #  1 - Component up-dwn
   === REAL PART:
   0.00000   0.00000   0.00000   0.00000   0.00000   0.00000   0.00000   0.00000
   0.00000   0.00000   0.00000   0.00000   0.00000   0.00000   0.00000   0.00000
   0.00000   0.00000   0.00000   0.00000   0.00012   0.00000   0.00000   0.00030
   0.00000   0.00000   0.00000   0.00000   0.00151   0.00000   0.00000   0.00350
   0.00000   0.00000   0.00012  -0.00151   0.00000   0.00030  -0.00350   0.00000
   0.00000   0.00000   0.00000   0.00000   0.00030   0.00000   0.00000   0.00141
   0.00000   0.00000   0.00000   0.00000   0.00350   0.00000   0.00000   0.01115
   0.00000   0.00000   0.00030  -0.00350   0.00000   0.00141  -0.01115   0.00000
   === IMAGINARY PART:
  -0.00275   0.00296  -0.00000  -0.00000  -0.00000  -0.00000  -0.00000  -0.00000
   0.00296  -0.00320  -0.00000  -0.00000  -0.00000  -0.00000  -0.00000  -0.00000
   0.00000   0.00000  -0.00016   0.00151  -0.00000  -0.00040   0.00350  -0.00000
   0.00000   0.00000  -0.00151   0.00008  -0.00000  -0.00350   0.00020  -0.00000
   0.00000   0.00000   0.00000   0.00000   0.00008  -0.00000  -0.00000   0.00020
   0.00000   0.00000  -0.00040   0.00350   0.00000  -0.00189   0.01115  -0.00000
   0.00000   0.00000  -0.00350   0.00020   0.00000  -0.01115   0.00094  -0.00000
   0.00000   0.00000   0.00000   0.00000   0.00020   0.00000   0.00000   0.00094
 Atom #  1 - Component dwn-up
   === REAL PART:
   0.00000   0.00000   0.00000   0.00000   0.00000   0.00000   0.00000   0.00000
   0.00000   0.00000   0.00000   0.00000   0.00000   0.00000   0.00000   0.00000
   0.00000   0.00000   0.00000   0.00000   0.00012   0.00000   0.00000   0.00030
   0.00000   0.00000   0.00000   0.00000  -0.00151   0.00000   0.00000  -0.00350
   0.00000   0.00000   0.00012   0.00151   0.00000   0.00030   0.00350   0.00000
   0.00000   0.00000   0.00000   0.00000   0.00030   0.00000   0.00000   0.00141
   0.00000   0.00000   0.00000   0.00000  -0.00350   0.00000   0.00000  -0.01115
   0.00000   0.00000   0.00030   0.00350   0.00000   0.00141   0.01115   0.00000
   === IMAGINARY PART:
   0.00275  -0.00296  -0.00000  -0.00000  -0.00000  -0.00000  -0.00000  -0.00000
  -0.00296   0.00320  -0.00000  -0.00000  -0.00000  -0.00000  -0.00000  -0.00000
   0.00000   0.00000   0.00016   0.00151  -0.00000   0.00040   0.00350  -0.00000
   0.00000   0.00000  -0.00151  -0.00008  -0.00000  -0.00350  -0.00020  -0.00000
   0.00000   0.00000   0.00000   0.00000  -0.00008  -0.00000  -0.00000  -0.00020
   0.00000   0.00000   0.00040   0.00350   0.00000   0.00189   0.01115  -0.00000
   0.00000   0.00000  -0.00350  -0.00020   0.00000  -0.01115  -0.00094  -0.00000
   0.00000   0.00000   0.00000   0.00000  -0.00020   0.00000   0.00000  -0.00094
 Atom #  2 - Component up-up
   === REAL PART:
   0.35676  -0.57402   0.00000   0.00621  -0.00000  -0.00000  -0.02024   0.00000
  -0.57402   1.04208  -0.00000  -0.00969   0.00000   0.00000   0.03098  -0.00000
   0.00000  -0.00000  -0.61660  -0.00012   0.00000   1.12994   0.00035  -0.00000
   0.00621  -0.00969  -0.00012  -0.62661   0.00000   0.00035   1.15781  -0.00000
  -0.00000   0.00000   0.00000   0.00000  -0.61660  -0.00000  -0.00000   1.12994
  -0.00000   0.00000   1.12994   0.00035  -0.00000  -0.98675  -0.00100   0.00000
  -0.02024   0.03098   0.00035   1.15781  -0.00000  -0.00100  -1.06118   0.00000
   0.00000  -0.00000  -0.00000  -0.00000   1.12994   0.00000   0.00000  -0.98675
   === IMAGINARY PART:
  -0.00000  -0.00000  -0.00000  -0.00000  -0.00000  -0.00000  -0.00000  -0.00000
   0.00000  -0.00000  -0.00000  -0.00000  -0.00000  -0.00000  -0.00000  -0.00000
   0.00000   0.00000  -0.00000  -0.00000  -0.00078  -0.00000  -0.00000   0.00224
   0.00000   0.00000   0.00000  -0.00000  -0.00034  -0.00000  -0.00000   0.00102
   0.00000   0.00000   0.00078   0.00034  -0.00000  -0.00224  -0.00102  -0.00000
   0.00000   0.00000   0.00000   0.00000   0.00224  -0.00000  -0.00000  -0.00650
   0.00000   0.00000   0.00000   0.00000   0.00102   0.00000  -0.00000  -0.00302
   0.00000   0.00000  -0.00224  -0.00102   0.00000   0.00650   0.00302  -0.00000
 Atom #  2 - Component dwn-dwn
   === REAL PART:
   0.35676  -0.57402   0.00000   0.00621  -0.00000  -0.00000  -0.02024   0.00000
  -0.57402   1.04208  -0.00000  -0.00969   0.00000   0.00000   0.03098  -0.00000
   0.00000  -0.00000  -0.61660   0.00012   0.00000   1.12994  -0.00035  -0.00000
   0.00621  -0.00969   0.00012  -0.62661   0.00000  -0.00035   1.15781  -0.00000
  -0.00000   0.00000   0.00000   0.00000  -0.61660  -0.00000  -0.00000   1.12994
  -0.00000   0.00000   1.12994  -0.00035  -0.00000  -0.98675   0.00100   0.00000
  -0.02024   0.03098  -0.00035   1.15781  -0.00000   0.00100  -1.06118   0.00000
   0.00000  -0.00000  -0.00000  -0.00000   1.12994   0.00000   0.00000  -0.98675
   === IMAGINARY PART:
  -0.00000  -0.00000  -0.00000  -0.00000  -0.00000  -0.00000  -0.00000  -0.00000
   0.00000  -0.00000  -0.00000  -0.00000  -0.00000  -0.00000  -0.00000  -0.00000
   0.00000   0.00000  -0.00000  -0.00000   0.00078  -0.00000  -0.00000  -0.00224
   0.00000   0.00000   0.00000  -0.00000  -0.00034  -0.00000  -0.00000   0.00102
   0.00000   0.00000  -0.00078   0.00034  -0.00000   0.00224  -0.00102  -0.00000
   0.00000   0.00000   0.00000   0.00000  -0.00224  -0.00000  -0.00000   0.00650
   0.00000   0.00000   0.00000   0.00000   0.00102   0.00000  -0.00000  -0.00302
   0.00000   0.00000   0.00224  -0.00102   0.00000  -0.00650   0.00302  -0.00000
 Atom #  2 - Component up-dwn
   === REAL PART:
   0.00000   0.00000   0.00000   0.00000   0.00000   0.00000   0.00000   0.00000
   0.00000   0.00000   0.00000   0.00000   0.00000   0.00000   0.00000   0.00000
   0.00000   0.00000   0.00000   0.00000  -0.00012   0.00000   0.00000   0.00035
   0.00000   0.00000   0.00000   0.00000   0.00078   0.00000   0.00000  -0.00224
   0.00000   0.00000  -0.00012  -0.00078   0.00000   0.00035   0.00224   0.00000
   0.00000   0.00000   0.00000   0.00000   0.00035   0.00000   0.00000  -0.00100
   0.00000   0.00000   0.00000   0.00000  -0.00224   0.00000   0.00000   0.00650
   0.00000   0.00000   0.00035   0.00224   0.00000  -0.00100  -0.00650   0.00000
   === IMAGINARY PART:
   0.00266  -0.00455  -0.00000  -0.00000  -0.00000  -0.00000  -0.00000  -0.00000
  -0.00455   0.00778  -0.00000  -0.00000  -0.00000  -0.00000  -0.00000  -0.00000
   0.00000   0.00000   0.00017   0.00078  -0.00000  -0.00046  -0.00224  -0.00000
   0.00000   0.00000  -0.00078  -0.00008  -0.00000   0.00224   0.00023  -0.00000
   0.00000   0.00000   0.00000   0.00000  -0.00008  -0.00000  -0.00000   0.00023
   0.00000   0.00000  -0.00046  -0.00224   0.00000   0.00133   0.00650  -0.00000
   0.00000   0.00000   0.00224   0.00023   0.00000  -0.00650  -0.00066  -0.00000
   0.00000   0.00000   0.00000   0.00000   0.00023   0.00000   0.00000  -0.00066
 Atom #  2 - Component dwn-up
   === REAL PART:
   0.00000   0.00000   0.00000   0.00000   0.00000   0.00000   0.00000   0.00000
   0.00000   0.00000   0.00000   0.00000   0.00000   0.00000   0.00000   0.00000
   0.00000   0.00000   0.00000   0.00000  -0.00012   0.00000   0.00000   0.00035
   0.00000   0.00000   0.00000   0.00000  -0.00078   0.00000   0.00000   0.00224
   0.00000   0.00000  -0.00012   0.00078   0.00000   0.00035  -0.00224   0.00000
   0.00000   0.00000   0.00000   0.00000   0.00035   0.00000   0.00000  -0.00100
   0.00000   0.00000   0.00000   0.00000   0.00224   0.00000   0.00000  -0.00650
   0.00000   0.00000   0.00035  -0.00224   0.00000  -0.00100   0.00650   0.00000
   === IMAGINARY PART:
  -0.00266   0.00455  -0.00000  -0.00000  -0.00000  -0.00000  -0.00000  -0.00000
   0.00455  -0.00778  -0.00000  -0.00000  -0.00000  -0.00000  -0.00000  -0.00000
   0.00000   0.00000  -0.00017   0.00078  -0.00000   0.00046  -0.00224  -0.00000
   0.00000   0.00000  -0.00078   0.00008  -0.00000   0.00224  -0.00023  -0.00000
   0.00000   0.00000   0.00000   0.00000   0.00008  -0.00000  -0.00000  -0.00023
   0.00000   0.00000   0.00046  -0.00224   0.00000  -0.00133   0.00650  -0.00000
   0.00000   0.00000   0.00224  -0.00023   0.00000  -0.00650   0.00066  -0.00000
   0.00000   0.00000   0.00000   0.00000  -0.00023   0.00000   0.00000   0.00066


 Augmentation waves occupancies Rhoij:
 Atom #  1 - Component dens (n)
   === REAL PART:
   2.00233  -0.00127  -0.00000  -0.21473  -0.00000   0.00000  -0.00066   0.00000
  -0.00127   0.00008   0.00000   0.00642   0.00000   0.00000   0.00004   0.00000
  -0.00000   0.00000   2.01384  -0.00000  -0.00000   0.00197  -0.00000  -0.00000
  -0.21473   0.00642  -0.00000   0.81895  -0.00000  -0.00000   0.00307   0.00000
  -0.00000   0.00000  -0.00000  -0.00000   2.01383  -0.00000   0.00000   0.00197
   0.00000   0.00000   0.00197  -0.00000  -0.00000   0.00001   0.00000  -0.00000
  -0.00066   0.00004  -0.00000   0.00307   0.00000   0.00000   0.00002   0.00000
   0.00000   0.00000  -0.00000   0.00000   0.00197  -0.00000   0.00000   0.00001
   === IMAGINARY PART:
  -0.00000   0.00000  -0.00000   0.00000   0.00098   0.00000  -0.00000   0.00001
  -0.00000  -0.00000   0.00000  -0.00000  -0.00004  -0.00000   0.00000  -0.00000
   0.00000  -0.00000  -0.00000   0.00000   0.00000  -0.00000  -0.00000  -0.00000
  -0.00000   0.00000  -0.00000  -0.00000   0.00693  -0.00000  -0.00000  -0.00002
  -0.00098   0.00004  -0.00000  -0.00693   0.00000  -0.00000   0.00008  -0.00000
  -0.00000   0.00000   0.00000   0.00000   0.00000  -0.00000  -0.00000   0.00000
   0.00000  -0.00000   0.00000   0.00000  -0.00008   0.00000   0.00000  -0.00000
  -0.00001   0.00000   0.00000   0.00002   0.00000  -0.00000   0.00000   0.00000
 Atom #  1 - Component magn (x)
   === REAL PART:
   0.00000   0.00000   0.00000   0.00000   0.00000   0.00000   0.00000   0.00000
   0.00000   0.00000   0.00000   0.00000   0.00000   0.00000   0.00000   0.00000
   0.00000   0.00000   0.00000   0.00000   0.00000   0.00000   0.00000   0.00000
   0.00000   0.00000   0.00000   0.00000   0.00000   0.00000   0.00000   0.00000
   0.00000   0.00000   0.00000   0.00000   0.00000   0.00000   0.00000   0.00000
   0.00000   0.00000   0.00000   0.00000   0.00000   0.00000   0.00000   0.00000
   0.00000   0.00000   0.00000   0.00000   0.00000   0.00000   0.00000   0.00000
   0.00000   0.00000   0.00000   0.00000   0.00000   0.00000   0.00000   0.00000
   === IMAGINARY PART:
   0.00000  -0.00000  -0.00232   0.00000   0.00000  -0.00003   0.00000  -0.00000
   0.00000   0.00000   0.00009   0.00000  -0.00000   0.00000  -0.00000   0.00000
   0.00232  -0.00009  -0.00000   0.02107   0.00000   0.00000  -0.00029   0.00000
  -0.00000  -0.00000  -0.02107  -0.00000   0.00000   0.00008   0.00000   0.00000
  -0.00000   0.00000  -0.00000  -0.00000  -0.00000  -0.00000   0.00000   0.00000
   0.00003  -0.00000  -0.00000  -0.00008   0.00000   0.00000  -0.00000  -0.00000
  -0.00000   0.00000   0.00029  -0.00000  -0.00000   0.00000  -0.00000  -0.00000
   0.00000  -0.00000  -0.00000  -0.00000  -0.00000   0.00000   0.00000   0.00000
 Atom #  1 - Component magn (y)
   === REAL PART:
   0.00000   0.00000   0.00000   0.00000   0.00000   0.00000   0.00000   0.00000
   0.00000   0.00000   0.00000   0.00000   0.00000   0.00000   0.00000   0.00000
   0.00000   0.00000   0.00000   0.00000   0.00000   0.00000   0.00000   0.00000
   0.00000   0.00000   0.00000   0.00000   0.00000   0.00000   0.00000   0.00000
   0.00000   0.00000   0.00000   0.00000   0.00000   0.00000   0.00000   0.00000
   0.00000   0.00000   0.00000   0.00000   0.00000   0.00000   0.00000   0.00000
   0.00000   0.00000   0.00000   0.00000   0.00000   0.00000   0.00000   0.00000
   0.00000   0.00000   0.00000   0.00000   0.00000   0.00000   0.00000   0.00000
   === IMAGINARY PART:
  -0.00000   0.00000  -0.00000   0.00000   0.00232   0.00000  -0.00000   0.00003
  -0.00000  -0.00000   0.00000  -0.00000  -0.00009  -0.00000   0.00000  -0.00000
   0.00000  -0.00000  -0.00000   0.00000   0.00000   0.00000  -0.00000  -0.00000
  -0.00000   0.00000  -0.00000  -0.00000   0.02107  -0.00000  -0.00000  -0.00008
  -0.00232   0.00009  -0.00000  -0.02107  -0.00000  -0.00000   0.00029  -0.00000
  -0.00000   0.00000  -0.00000   0.00000   0.00000  -0.00000  -0.00000   0.00000
   0.00000  -0.00000   0.00000   0.00000  -0.00029   0.00000  -0.00000  -0.00000
  -0.00003   0.00000   0.00000   0.00008   0.00000  -0.00000   0.00000  -0.00000
 Atom #  1 - Component magn (z)
   === REAL PART:
   0.00000   0.00000   0.00000   0.00000   0.00000   0.00000   0.00000   0.00000
   0.00000   0.00000   0.00000   0.00000   0.00000   0.00000   0.00000   0.00000
   0.00000   0.00000   0.00000   0.00000   0.00000   0.00000   0.00000   0.00000
   0.00000   0.00000   0.00000   0.00000   0.00000   0.00000   0.00000   0.00000
   0.00000   0.00000   0.00000   0.00000   0.00000   0.00000   0.00000   0.00000
   0.00000   0.00000   0.00000   0.00000   0.00000   0.00000   0.00000   0.00000
   0.00000   0.00000   0.00000   0.00000   0.00000   0.00000   0.00000   0.00000
   0.00000   0.00000   0.00000   0.00000   0.00000   0.00000   0.00000   0.00000
   === IMAGINARY PART:
  -0.00000   0.00000   0.00000   0.00000  -0.00000   0.00000  -0.00000  -0.00000
  -0.00000   0.00000  -0.00000  -0.00000   0.00000  -0.00000   0.00000   0.00000
  -0.00000   0.00000   0.00000  -0.00000  -0.01290   0.00000  -0.00000   0.00026
  -0.00000   0.00000   0.00000  -0.00000  -0.00000   0.00000   0.00000   0.00000
   0.00000  -0.00000   0.01290   0.00000  -0.00000  -0.00026   0.00000  -0.00000
  -0.00000   0.00000  -0.00000  -0.00000   0.00026   0.00000   0.00000   0.00000
   0.00000  -0.00000   0.00000  -0.00000  -0.00000  -0.00000  -0.00000  -0.00000
   0.00000  -0.00000  -0.00026  -0.00000   0.00000  -0.00000   0.00000  -0.00000
 Atom #  2 - Component dens (n)
   === REAL PART:
   2.05574   0.02057   0.00000   0.06310   0.00000   0.00000  -0.00079   0.00000
   0.02057   0.00359   0.00000  -0.06362  -0.00000   0.00000  -0.00689  -0.00000
   0.00000   0.00000   2.54448  -0.00000  -0.00000   0.17632  -0.00000  -0.00000
   0.06310  -0.06362  -0.00000   1.91950  -0.00000  -0.00000   0.17644  -0.00000
   0.00000  -0.00000  -0.00000  -0.00000   2.54447  -0.00000   0.00000   0.17632
   0.00000   0.00000   0.17632  -0.00000  -0.00000   0.01267  -0.00000  -0.00000
  -0.00079  -0.00689  -0.00000   0.17644   0.00000  -0.00000   0.01700   0.00000
   0.00000  -0.00000  -0.00000  -0.00000   0.17632  -0.00000   0.00000   0.01267
   === IMAGINARY PART:
   0.00000  -0.00000  -0.00000  -0.00000   0.00031  -0.00000   0.00000   0.00002
   0.00000   0.00000   0.00000  -0.00000  -0.00025   0.00000  -0.00000  -0.00002
   0.00000  -0.00000  -0.00000  -0.00000  -0.00000  -0.00000  -0.00000  -0.00000
   0.00000   0.00000   0.00000  -0.00000  -0.00231   0.00000   0.00000   0.00002
  -0.00031   0.00025   0.00000   0.00231  -0.00000   0.00000  -0.00020   0.00000
   0.00000  -0.00000   0.00000  -0.00000  -0.00000  -0.00000   0.00000  -0.00000
  -0.00000   0.00000   0.00000  -0.00000   0.00020  -0.00000   0.00000   0.00003
  -0.00002   0.00002   0.00000  -0.00002  -0.00000   0.00000  -0.00003   0.00000
 Atom #  2 - Component magn (x)
   === REAL PART:
   0.00000   0.00000   0.00000   0.00000   0.00000   0.00000   0.00000   0.00000
   0.00000   0.00000   0.00000   0.00000   0.00000   0.00000   0.00000   0.00000
   0.00000   0.00000   0.00000   0.00000   0.00000   0.00000   0.00000   0.00000
   0.00000   0.00000   0.00000   0.00000   0.00000   0.00000   0.00000   0.00000
   0.00000   0.00000   0.00000   0.00000   0.00000   0.00000   0.00000   0.00000
   0.00000   0.00000   0.00000   0.00000   0.00000   0.00000   0.00000   0.00000
   0.00000   0.00000   0.00000   0.00000   0.00000   0.00000   0.00000   0.00000
   0.00000   0.00000   0.00000   0.00000   0.00000   0.00000   0.00000   0.00000
   === IMAGINARY PART:
   0.00000  -0.00000  -0.00017  -0.00000   0.00000   0.00003  -0.00000   0.00000
   0.00000   0.00000   0.00010   0.00000  -0.00000  -0.00001  -0.00000  -0.00000
   0.00017  -0.00010  -0.00000  -0.00077   0.00000  -0.00000  -0.00037   0.00000
   0.00000  -0.00000   0.00077  -0.00000  -0.00000   0.00013   0.00000  -0.00000
  -0.00000   0.00000  -0.00000   0.00000  -0.00000  -0.00000   0.00000   0.00000
  -0.00003   0.00001   0.00000  -0.00013   0.00000   0.00000  -0.00004   0.00000
   0.00000   0.00000   0.00037  -0.00000  -0.00000   0.00004  -0.00000  -0.00000
  -0.00000   0.00000  -0.00000   0.00000  -0.00000  -0.00000   0.00000   0.00000
 Atom #  2 - Component magn (y)
   === REAL PART:
   0.00000   0.00000   0.00000   0.00000   0.00000   0.00000   0.00000   0.00000
   0.00000   0.00000   0.00000   0.00000   0.00000   0.00000   0.00000   0.00000
   0.00000   0.00000   0.00000   0.00000   0.00000   0.00000   0.00000   0.00000
   0.00000   0.00000   0.00000   0.00000   0.00000   0.00000   0.00000   0.00000
   0.00000   0.00000   0.00000   0.00000   0.00000   0.00000   0.00000   0.00000
   0.00000   0.00000   0.00000   0.00000   0.00000   0.00000   0.00000   0.00000
   0.00000   0.00000   0.00000   0.00000   0.00000   0.00000   0.00000   0.00000
   0.00000   0.00000   0.00000   0.00000   0.00000   0.00000   0.00000   0.00000
   === IMAGINARY PART:
  -0.00000  -0.00000  -0.00000  -0.00000   0.00017  -0.00000  -0.00000  -0.00003
   0.00000  -0.00000   0.00000  -0.00000  -0.00010   0.00000  -0.00000   0.00001
   0.00000  -0.00000  -0.00000  -0.00000   0.00000  -0.00000  -0.00000   0.00000
   0.00000   0.00000   0.00000  -0.00000  -0.00077   0.00000   0.00000  -0.00013
  -0.00017   0.00010  -0.00000   0.00077  -0.00000  -0.00000   0.00037   0.00000
   0.00000  -0.00000   0.00000  -0.00000   0.00000  -0.00000  -0.00000   0.00000
   0.00000   0.00000   0.00000  -0.00000  -0.00037   0.00000  -0.00000  -0.00004
   0.00003  -0.00001  -0.00000   0.00013  -0.00000  -0.00000   0.00004  -0.00000
 Atom #  2 - Component magn (z)
   === REAL PART:
   0.00000   0.00000   0.00000   0.00000   0.00000   0.00000   0.00000   0.00000
   0.00000   0.00000   0.00000   0.00000   0.00000   0.00000   0.00000   0.00000
   0.00000   0.00000   0.00000   0.00000   0.00000   0.00000   0.00000   0.00000
   0.00000   0.00000   0.00000   0.00000   0.00000   0.00000   0.00000   0.00000
   0.00000   0.00000   0.00000   0.00000   0.00000   0.00000   0.00000   0.00000
   0.00000   0.00000   0.00000   0.00000   0.00000   0.00000   0.00000   0.00000
   0.00000   0.00000   0.00000   0.00000   0.00000   0.00000   0.00000   0.00000
   0.00000   0.00000   0.00000   0.00000   0.00000   0.00000   0.00000   0.00000
   === IMAGINARY PART:
   0.00000  -0.00000   0.00000  -0.00000  -0.00000   0.00000  -0.00000   0.00000
   0.00000  -0.00000  -0.00000   0.00000   0.00000  -0.00000   0.00000   0.00000
  -0.00000   0.00000  -0.00000   0.00000  -0.00010   0.00000   0.00000   0.00036
   0.00000  -0.00000  -0.00000   0.00000   0.00000  -0.00000   0.00000   0.00000
   0.00000  -0.00000   0.00010  -0.00000  -0.00000  -0.00036  -0.00000  -0.00000
  -0.00000   0.00000  -0.00000   0.00000   0.00036   0.00000   0.00000   0.00005
   0.00000  -0.00000  -0.00000  -0.00000   0.00000  -0.00000   0.00000   0.00000
  -0.00000  -0.00000  -0.00036  -0.00000   0.00000  -0.00005  -0.00000   0.00000


================================================================================

 ----iterations are completed or convergence reached----

 Mean square residual over all n,k,spin=   39.135E-12; max=  27.599E-11
 reduced coordinates (array xred) for    2 atoms
       0.000000000000      0.000000000000      0.000000000000
       0.000000000000      0.000000000000      0.163000000000
 rms dE/dt=  0.0000E+00; max dE/dt=  0.0000E+00; dE/dt below (all hartree)
    1       0.000000000000      0.000000000000      0.000000000000
    2       0.000000000000      0.000000000000      0.000000000000

 cartesian coordinates (angstrom) at end:
    1      0.00000000000000     0.00000000000000     0.00000000000000
    2      0.00000000000000     0.00000000000000     1.63000000000000
 length scales= 18.897261328856 18.897261328856 18.897261328856 bohr
              = 10.000000000000 10.000000000000 10.000000000000 angstroms
 Fermi (or HOMO) energy (hartree) =  -0.27657   Average Vxc (hartree)=  -0.03283
 Eigenvalues (hartree) for nkpt=   1  k points:
 kpt#   1, nband= 16, wtk=  1.00000, kpt=  0.0000  0.0000  0.0000 (reduced coord)
  -1.19012   -1.18577   -0.77142   -0.76718   -0.49543   -0.49511   -0.42109   -0.42091
  -0.41943   -0.41943   -0.27947   -0.27920   -0.27657   -0.27657   -0.15559   -0.15557

--- !EnergyTerms
iteration_state     : {dtset: 2, }
comment             : Components of total free energy in Hartree
kinetic             :  1.64222429403159E+01
hartree             :  3.47174304654007E+01
xc                  : -7.15942348470897E+00
Ewald energy        :  1.34374587046587E+00
psp_core            :  1.90512511514595E-02
local_psp           : -8.79815957759084E+01
PAW spherical_terms :  3.47635886405701E+00
nucl. magn. dipoles : -8.83858547890453E-07
total_energy        : -3.91621907530849E+01
total_energy_eV     : -1.06565740538074E+03
...


--- !EnergyTermsDC
iteration_state     : {dtset: 2, }
comment             : '"Double-counting" decomposition of free energy'
band_energy         : -7.69768782200082E+00
Ewald energy        :  1.34374587046587E+00
psp_core            :  1.90512511514595E-02
xc_dc               : -3.27002093146043E+01
PAW spherical_terms : -1.27158227406975E-01
total_energy_dc     : -3.91622582423948E+01
total_energy_dc_eV  : -1.06565924185825E+03
...


--- !EnergyTermsWithPAWCore
iteration_state     : {dtset: 2, }
comment             : 'Components of total free energy, including PAW core contributions'
Total energy        : -5.61040548434487E+02
Total energy DC     : -5.61040615923797E+02
Total energy (eV)   : -1.52666897244757E+04
Total energy DC (eV): -1.52666915609533E+04
...


================================================================================
== DATASET  3 ==================================================================
-   mpi_nproc: 1, omp_nthreads: -1 (-1 if OMP is not activated)


--- !DatasetInfo
iteration_state: {dtset: 3, }
dimensions: {natom: 2, nkpt: 1, mband: 16, nsppol: 1, nspinor: 2, nspden: 1, mpw: 10131, }
cutoff_energies: {ecut:  10.0, pawecutdg:  20.0, }
electrons: {nelect:   1.40000000E+01, charge:   0.00000000E+00, occopt:   1.00000000E+00, tsmear:   1.00000000E-02, }
meta: {optdriver: 0, ionmov: 0, optcell: 0, iscf: 17, paral_kgb: 0, }
...

 Real(R)+Recip(G) space primitive vectors, cartesian coordinates (Bohr,Bohr^-1):
 R(1)= 18.8972613  0.0000000  0.0000000  G(1)=  0.0529177  0.0000000  0.0000000
 R(2)=  0.0000000 18.8972613  0.0000000  G(2)=  0.0000000  0.0529177  0.0000000
 R(3)=  0.0000000  0.0000000 18.8972613  G(3)=  0.0000000  0.0000000  0.0529177
 Unit cell volume ucvol=  6.7483346E+03 bohr^3
 Angles (23,13,12)=  9.00000000E+01  9.00000000E+01  9.00000000E+01 degrees

 Coarse grid specifications (used for wave-functions):

 getcut: wavevector=  0.0000  0.0000  0.0000  ngfft=  54  54  54
         ecut(hartree)=     10.000   => boxcut(ratio)=   2.00738

 Fine grid specifications (used for densities):

 getcut: wavevector=  0.0000  0.0000  0.0000  ngfft=  80  80  80
         ecut(hartree)=     20.000   => boxcut(ratio)=   2.10286
--------------------------------------------------------------------------------

_setup2: Arith. and geom. avg. npw (full set) are   10131.000   10131.000

================================================================================

--- !BeginCycle
iteration_state: {dtset: 3, }
solver: {iscf: 17, nstep: 20, nline: 4, wfoptalg: 10, }
tolerances: {toldfe: 1.00E-11, }
...

     iter   Etot(hartree)      deltaE(h)  residm     nres2
 ETOT  1  -39.044505947034    -3.904E+01 5.595E-02 8.349E+00
 ETOT  2  -39.198990001901    -1.545E-01 7.331E-03 4.780E+00
 ETOT  3  -39.162447702791     3.654E-02 3.587E-03 3.033E-01
 ETOT  4  -39.163782192949    -1.334E-03 3.386E-04 2.646E-01
 ETOT  5  -39.162096332448     1.686E-03 1.336E-04 2.498E-02
 ETOT  6  -39.162049229921     4.710E-05 2.310E-06 2.265E-03
 ETOT  7  -39.162040578410     8.652E-06 1.764E-07 9.817E-04
 ETOT  8  -39.162036337802     4.241E-06 4.198E-07 1.723E-04
 ETOT  9  -39.162060581875    -2.424E-05 7.710E-08 8.474E-05
 ETOT 10  -39.162097995946    -3.741E-05 4.300E-08 4.373E-05
 ETOT 11  -39.162140450646    -4.245E-05 5.535E-08 2.358E-05
 ETOT 12  -39.162179164239    -3.871E-05 9.525E-08 8.137E-06
 ETOT 13  -39.162195661043    -1.650E-05 1.779E-08 5.948E-06
 ETOT 14  -39.162204336488    -8.675E-06 2.516E-09 3.218E-06
 ETOT 15  -39.162218963101    -1.463E-05 7.552E-09 1.778E-06
 ETOT 16  -39.162232378341    -1.342E-05 5.586E-09 7.931E-07
 ETOT 17  -39.162240361857    -7.984E-06 1.450E-09 4.048E-07
 ETOT 18  -39.162251974906    -1.161E-05 4.864E-09 7.842E-08
 ETOT 19  -39.162254248887    -2.274E-06 8.623E-10 2.974E-08
 ETOT 20  -39.162255743266    -1.494E-06 2.034E-10 7.063E-09

 scprqt:  WARNING -
  nstep=   20 was not enough SCF cycles to converge;
  maximum energy difference=  1.494E-06 exceeds toldfe=  1.000E-11


--- !ResultsGS
iteration_state: {dtset: 3, }
comment   : Summary of ground state results
lattice_vectors:
- [ 18.8972613,   0.0000000,   0.0000000, ]
- [  0.0000000,  18.8972613,   0.0000000, ]
- [  0.0000000,   0.0000000,  18.8972613, ]
lattice_lengths: [  18.89726,   18.89726,   18.89726, ]
lattice_angles: [ 90.000,  90.000,  90.000, ] # degrees, (23, 13, 12)
lattice_volume:   6.7483346E+03
convergence: {deltae: -1.494E-06, res2:  7.063E-09, residm:  2.034E-10, diffor:  0.000E+00, }
etotal    :  -3.91622557E+01
entropy   :   0.00000000E+00
fermie    :  -2.76233876E-01
cartesian_stress_tensor: null
pressure_GPa: null
xred      :
- [  0.0000E+00,   0.0000E+00,   0.0000E+00, Cl]
- [  0.0000E+00,   0.0000E+00,   1.6300E-01,  F]
cartesian_forces: null
force_length_stats: {min: null, max: null, mean: null, }
...

 Integrated electronic density in atomic spheres:
 ------------------------------------------------
 Atom  Sphere_radius  Integrated_density
    1        1.80316          4.29400739
    2        1.40289          5.68496665

 PAW TEST:
 ==== Compensation charge inside spheres ============
 The following values must be close to each other ...
 Compensation charge over spherical meshes =      0.029346340121491
 Compensation charge over fine fft grid    =      0.029546473425448

 ==== Results concerning PAW augmentation regions ====

 Total pseudopotential strength Dij (hartree):
 Atom #  1 - Component up-up
   === REAL PART:
   2.66378   0.17559   0.00000   0.00164   0.00000   0.00000  -0.00954   0.00000
   0.17559  12.38725   0.00000   0.00353   0.00000   0.00000   0.01230   0.00000
   0.00000   0.00000   0.51822   0.00000   0.00000  -0.09501   0.00000   0.00000
   0.00164   0.00353   0.00000   0.51987   0.00000   0.00000  -0.09909   0.00000
   0.00000   0.00000   0.00000   0.00000   0.51822   0.00000   0.00000  -0.09501
   0.00000   0.00000  -0.09501   0.00000   0.00000 -29.07014   0.00000   0.00000
  -0.00954   0.01230   0.00000  -0.09909   0.00000   0.00000 -29.09663   0.00000
   0.00000   0.00000   0.00000   0.00000  -0.09501   0.00000   0.00000 -29.07014
   === IMAGINARY PART:
  -0.00000  -0.00000  -0.00000  -0.00000  -0.00000  -0.00000  -0.00000  -0.00000
   0.00000  -0.00000  -0.00000  -0.00000  -0.00000  -0.00000  -0.00000  -0.00000
   0.00000   0.00000  -0.00000  -0.00000  -0.00187  -0.00000  -0.00000  -0.00450
   0.00000   0.00000   0.00000  -0.00000  -0.00000  -0.00000  -0.00000  -0.00000
   0.00000   0.00000   0.00187   0.00000  -0.00000   0.00450  -0.00000  -0.00000
   0.00000   0.00000   0.00000   0.00000  -0.00450  -0.00000  -0.00000  -0.01244
   0.00000   0.00000   0.00000   0.00000   0.00000   0.00000  -0.00000  -0.00000
   0.00000   0.00000   0.00450   0.00000   0.00000   0.01244   0.00000  -0.00000
 Atom #  1 - Component dwn-dwn
   === REAL PART:
   2.65828   0.18152   0.00000   0.00164   0.00000   0.00000  -0.00954   0.00000
   0.18152  12.38085   0.00000   0.00353   0.00000   0.00000   0.01230   0.00000
   0.00000   0.00000   0.51838   0.00000   0.00000  -0.09461   0.00000   0.00000
   0.00164   0.00353   0.00000   0.51955   0.00000   0.00000  -0.09990   0.00000
   0.00000   0.00000   0.00000   0.00000   0.51838   0.00000   0.00000  -0.09461
   0.00000   0.00000  -0.09461   0.00000   0.00000 -29.06826   0.00000   0.00000
  -0.00954   0.01230   0.00000  -0.09990   0.00000   0.00000 -29.10041   0.00000
   0.00000   0.00000   0.00000   0.00000  -0.09461   0.00000   0.00000 -29.06826
   === IMAGINARY PART:
  -0.00000  -0.00000  -0.00000  -0.00000  -0.00000  -0.00000  -0.00000  -0.00000
   0.00000  -0.00000  -0.00000  -0.00000  -0.00000  -0.00000  -0.00000  -0.00000
   0.00000   0.00000  -0.00000  -0.00000   0.00114  -0.00000  -0.00000   0.00250
   0.00000   0.00000   0.00000  -0.00000  -0.00000  -0.00000  -0.00000  -0.00000
   0.00000   0.00000  -0.00114   0.00000  -0.00000  -0.00250  -0.00000  -0.00000
   0.00000   0.00000   0.00000   0.00000   0.00250  -0.00000  -0.00000   0.00987
   0.00000   0.00000   0.00000   0.00000   0.00000   0.00000  -0.00000  -0.00000
   0.00000   0.00000  -0.00250   0.00000   0.00000  -0.00987   0.00000  -0.00000
 Atom #  1 - Component up-dwn
   === REAL PART:
[...]
  -0.00017   0.00010   0.00000   0.00077   0.00000  -0.00000   0.00037  -0.00000
   0.00000  -0.00000  -0.00000  -0.00000   0.00000   0.00000  -0.00000   0.00000
   0.00000   0.00000   0.00000   0.00000  -0.00037   0.00000  -0.00000  -0.00004
   0.00003  -0.00001   0.00000   0.00013   0.00000  -0.00000   0.00004  -0.00000
 Atom #  2 - Component magn (z)
   === REAL PART:
   0.00000   0.00000   0.00000   0.00000   0.00000   0.00000   0.00000   0.00000
   0.00000   0.00000   0.00000   0.00000   0.00000   0.00000   0.00000   0.00000
   0.00000   0.00000   0.00000   0.00000   0.00000   0.00000   0.00000   0.00000
   0.00000   0.00000   0.00000   0.00000   0.00000   0.00000   0.00000   0.00000
   0.00000   0.00000   0.00000   0.00000   0.00000   0.00000   0.00000   0.00000
   0.00000   0.00000   0.00000   0.00000   0.00000   0.00000   0.00000   0.00000
   0.00000   0.00000   0.00000   0.00000   0.00000   0.00000   0.00000   0.00000
   0.00000   0.00000   0.00000   0.00000   0.00000   0.00000   0.00000   0.00000
   === IMAGINARY PART:
   0.00000  -0.00000   0.00000  -0.00000   0.00000  -0.00000   0.00000   0.00000
   0.00000  -0.00000   0.00000  -0.00000  -0.00000   0.00000   0.00000  -0.00000
  -0.00000  -0.00000   0.00000  -0.00000  -0.00011  -0.00000  -0.00000   0.00036
   0.00000   0.00000   0.00000  -0.00000  -0.00000   0.00000  -0.00000  -0.00000
  -0.00000   0.00000   0.00011   0.00000   0.00000  -0.00036   0.00000  -0.00000
   0.00000  -0.00000   0.00000  -0.00000   0.00036  -0.00000  -0.00000   0.00005
  -0.00000  -0.00000   0.00000   0.00000  -0.00000   0.00000   0.00000  -0.00000
  -0.00000   0.00000  -0.00036   0.00000   0.00000  -0.00005   0.00000  -0.00000


================================================================================

 ----iterations are completed or convergence reached----

 Mean square residual over all n,k,spin=   30.612E-12; max=  21.869E-11
 reduced coordinates (array xred) for    2 atoms
       0.000000000000      0.000000000000      0.000000000000
       0.000000000000      0.000000000000      0.163000000000
 rms dE/dt=  0.0000E+00; max dE/dt=  0.0000E+00; dE/dt below (all hartree)
    1       0.000000000000      0.000000000000      0.000000000000
    2       0.000000000000      0.000000000000      0.000000000000

 cartesian coordinates (angstrom) at end:
    1      0.00000000000000     0.00000000000000     0.00000000000000
    2      0.00000000000000     0.00000000000000     1.63000000000000
 length scales= 18.897261328856 18.897261328856 18.897261328856 bohr
              = 10.000000000000 10.000000000000 10.000000000000 angstroms
 Fermi (or HOMO) energy (hartree) =  -0.27640   Average Vxc (hartree)=  -0.03283
 Eigenvalues (hartree) for nkpt=   1  k points:
 kpt#   1, nband= 16, wtk=  1.00000, kpt=  0.0000  0.0000  0.0000 (reduced coord)
  -1.19011   -1.18577   -0.77141   -0.76719   -0.49541   -0.49513   -0.42118   -0.42083
  -0.41955   -0.41931   -0.27959   -0.27907   -0.27674   -0.27640   -0.15565   -0.15551

--- !EnergyTerms
iteration_state     : {dtset: 4, }
comment             : Components of total free energy in Hartree
kinetic             :  1.64222308798715E+01
hartree             :  3.47174243508542E+01
xc                  : -7.15942410107303E+00
Ewald energy        :  1.34374587046587E+00
psp_core            :  1.90512511514595E-02
local_psp           : -8.79815861168304E+01
PAW spherical_terms :  3.47636396428650E+00
nucl. magn. dipoles : -3.31804922653523E-07
total_energy        : -3.91621942330788E+01
total_energy_eV     : -1.06565750007619E+03
...


--- !EnergyTermsDC
iteration_state     : {dtset: 4, }
comment             : '"Double-counting" decomposition of free energy'
band_energy         : -7.69769153314429E+00
Ewald energy        :  1.34374587046587E+00
psp_core            :  1.90512511514595E-02
xc_dc               : -3.27002030776530E+01
PAW spherical_terms : -1.27158439842040E-01
total_energy_dc     : -3.91622559290220E+01
total_energy_dc_eV  : -1.06565917890818E+03
...


--- !EnergyTermsWithPAWCore
iteration_state     : {dtset: 4, }
comment             : 'Components of total free energy, including PAW core contributions'
Total energy        : -5.61040551914481E+02
Total energy DC     : -5.61040613610424E+02
Total energy (eV)   : -1.52666898191712E+04
Total energy DC (eV): -1.52666914980032E+04
...


== END DATASET(S) ==============================================================
================================================================================
  
 -outvars: echo values of variables after computation  --------
            acell      1.8897261329E+01  1.8897261329E+01  1.8897261329E+01 Bohr
              amu      3.54527000E+01  1.89984032E+01
         atndlist1     0.0000000000E+00  1.0000000000E+00  0.0000000000E+00
                       0.0000000000E+00  1.0000000000E+00  0.0000000000E+00
         atndlist2     0.0000000000E+00  1.0000000000E+00  0.0000000000E+00
                       0.0000000000E+00 -1.0000000000E+00  0.0000000000E+00
         atndlist3     0.0000000000E+00  0.0000000000E+00  1.0000000000E+00
                       0.0000000000E+00  0.0000000000E+00  1.0000000000E+00
         atndlist4     0.0000000000E+00  0.0000000000E+00  1.0000000000E+00
                       0.0000000000E+00  0.0000000000E+00 -1.0000000000E+00
      chksymbreak           0
      chksymtnons           0
             ecut      1.00000000E+01 Hartree
           etotal1    -3.9162256582E+01
           etotal2    -3.9162258242E+01
           etotal3    -3.9162255743E+01
           etotal4    -3.9162255929E+01
            fcart1     9.9999999999E+99  9.9999999999E+99  9.9999999999E+99
                       9.9999999999E+99  9.9999999999E+99  9.9999999999E+99
            fcart2     9.9999999999E+99  9.9999999999E+99  9.9999999999E+99
                       9.9999999999E+99  9.9999999999E+99  9.9999999999E+99
            fcart3     9.9999999999E+99  9.9999999999E+99  9.9999999999E+99
                       9.9999999999E+99  9.9999999999E+99  9.9999999999E+99
            fcart4     9.9999999999E+99  9.9999999999E+99  9.9999999999E+99
                       9.9999999999E+99  9.9999999999E+99  9.9999999999E+99
-          fftalg         512
            iatnd        1    2
           istwfk        1
              ixc     -101130
           jdtset        1    2    3    4
           kptopt           0
P           mkmem           1
            natnd           2
            natom           2
            nband          16
           ndtset           4
            ngfft          54      54      54
          ngfftdg          80      80      80
             nkpt           1
          nspinor           2
            nstep          20
             nsym1          1
             nsym2          1
             nsym3          4
             nsym4          4
           ntypat           2
        nucdipmom1     0.0000000000E+00  1.0000000000E+00  0.0000000000E+00
                       0.0000000000E+00  1.0000000000E+00  0.0000000000E+00
        nucdipmom2     0.0000000000E+00  1.0000000000E+00  0.0000000000E+00
                       0.0000000000E+00 -1.0000000000E+00  0.0000000000E+00
        nucdipmom3     0.0000000000E+00  0.0000000000E+00  1.0000000000E+00
                       0.0000000000E+00  0.0000000000E+00  1.0000000000E+00
        nucdipmom4     0.0000000000E+00  0.0000000000E+00  1.0000000000E+00
                       0.0000000000E+00  0.0000000000E+00 -1.0000000000E+00
              occ      1.000000  1.000000  1.000000  1.000000  1.000000  1.000000
                       1.000000  1.000000  1.000000  1.000000  1.000000  1.000000
                       1.000000  1.000000  0.000000  0.000000
        optforces           0
        optstress           0
        pawcpxocc           2
        pawecutdg      2.00000000E+01 Hartree
          pawovlp     -1.0000000000E+00
        pawspnorb           1
           prtden           0
        prtebands           0
           prteig           0
            prtwf           0
          spgroup1          1
          spgroup2          1
          spgroup3         75
          spgroup4         75
           strten1     9.9999999999E+99  9.9999999999E+99  9.9999999999E+99
                       9.9999999999E+99  9.9999999999E+99  9.9999999999E+99
           strten2     9.9999999999E+99  9.9999999999E+99  9.9999999999E+99
                       9.9999999999E+99  9.9999999999E+99  9.9999999999E+99
           strten3     9.9999999999E+99  9.9999999999E+99  9.9999999999E+99
                       9.9999999999E+99  9.9999999999E+99  9.9999999999E+99
           strten4     9.9999999999E+99  9.9999999999E+99  9.9999999999E+99
                       9.9999999999E+99  9.9999999999E+99  9.9999999999E+99
           symafm1       1
           symafm2       1
           symafm3       1    1    1    1
           symafm4       1    1    1    1
           symrel1     1  0  0   0  1  0   0  0  1
           symrel2     1  0  0   0  1  0   0  0  1
           symrel3     1  0  0   0  1  0   0  0  1      -1  0  0   0 -1  0   0  0  1
                       0  1  0  -1  0  0   0  0  1       0 -1  0   1  0  0   0  0  1
           symrel4     1  0  0   0  1  0   0  0  1      -1  0  0   0 -1  0   0  0  1
                       0  1  0  -1  0  0   0  0  1       0 -1  0   1  0  0   0  0  1
            tnons1     0.0000000  0.0000000  0.0000000
            tnons2     0.0000000  0.0000000  0.0000000
            tnons3     0.0000000  0.0000000  0.0000000     0.0000000  0.0000000  0.0000000
                       0.0000000  0.0000000  0.0000000     0.0000000  0.0000000  0.0000000
            tnons4     0.0000000  0.0000000  0.0000000     0.0000000  0.0000000  0.0000000
                       0.0000000  0.0000000  0.0000000     0.0000000  0.0000000  0.0000000
           toldfe      1.00000000E-11 Hartree
            typat      1  2
           useylm           1
           xangst      0.0000000000E+00  0.0000000000E+00  0.0000000000E+00
                       0.0000000000E+00  0.0000000000E+00  1.6300000000E+00
            xcart      0.0000000000E+00  0.0000000000E+00  0.0000000000E+00
                       0.0000000000E+00  0.0000000000E+00  3.0802535966E+00
             xred      0.0000000000E+00  0.0000000000E+00  0.0000000000E+00
                       0.0000000000E+00  0.0000000000E+00  1.6300000000E-01
            znucl       17.00000    9.00000
             zora           2

================================================================================

- Total cpu        time (s,m,h):        158.8        2.65      0.044
- Total wall clock time (s,m,h):        158.9        2.65      0.044
-
- For major independent code sections, cpu and wall times (sec),
-  as well as % of the time and number of calls for node 0
-
-<BEGIN_TIMER mpi_nprocs = 1, omp_nthreads = 1, mpi_rank = 0>
- cpu_time =          158.8, wall_time =          158.9
-
- routine                                    cpu     %          wall   %        number of calls Gflops    Speedup Efficacity
-                                                                                (-1=no count)
- fourwf%(pot)                            108.525  68.3       108.642  68.4          60848      -1.00        1.00       1.00
- vtowfk(contrib)                          15.015   9.5        15.014   9.4             80      -1.00        1.00       1.00
- xc:pot/=fourdp                           12.299   7.7        12.317   7.8             80      -1.00        1.00       1.00
- nonlop(apply)                             8.445   5.3         8.477   5.3           6646      -1.00        1.00       1.00
- fourdp                                    5.633   3.5         5.692   3.6           1816      -1.00        0.99       0.99
- projbd                                    2.934   1.8         2.930   1.8           5238      -1.00        1.00       1.00
- fourwf%(den)                              2.310   1.5         2.313   1.5           2240      -1.00        1.00       1.00
- vtowfk(ssdiag)                            1.417   0.9         1.423   0.9             -1      -1.00        1.00       1.00
- pspini                                    0.918   0.6         0.918   0.6              4      -1.00        1.00       1.00
- pawmkrho                                  0.839   0.5         0.842   0.5             80      -1.00        1.00       1.00
- getghc(/=fourXX,nonlop,fock_XX)          -7.082  -4.5        -7.216  -4.5             -1      -1.00        0.98       0.98
- others (199)                              1.558   1.0         1.566   1.0             -1      -1.00        1.00       1.00
-<END_TIMER>
-
- subtotal                                152.812  96.2       152.918  96.2                                  1.00       1.00

- For major independent code sections, cpu and wall times (sec),
- as well as % of the total time and number of calls 

-<BEGIN_TIMER mpi_nprocs = 1, omp_nthreads = 1, mpi_rank = world>
- cpu_time =         158.8, wall_time =         158.9
-
- routine                                    cpu     %          wall   %        number of calls Gflops    Speedup Efficacity
-                                                                                (-1=no count)
- fourwf%(pot)                            108.525  68.3       108.642  68.4          60848      -1.00        1.00       1.00
- vtowfk(contrib)                          15.015   9.5        15.014   9.4             80      -1.00        1.00       1.00
- xc:pot/=fourdp                           12.299   7.7        12.317   7.8             80      -1.00        1.00       1.00
- nonlop(apply)                             8.445   5.3         8.477   5.3           6646      -1.00        1.00       1.00
- fourdp                                    5.633   3.5         5.692   3.6           1816      -1.00        0.99       0.99
- projbd                                    2.934   1.8         2.930   1.8           5238      -1.00        1.00       1.00
- fourwf%(den)                              2.310   1.5         2.313   1.5           2240      -1.00        1.00       1.00
- vtowfk(ssdiag)                            1.417   0.9         1.423   0.9             -1      -1.00        1.00       1.00
- pspini                                    0.918   0.6         0.918   0.6              4      -1.00        1.00       1.00
- pawmkrho                                  0.839   0.5         0.842   0.5             80      -1.00        1.00       1.00
- others (200)                             -5.523  -3.5        -5.650  -3.6             -1      -1.00        0.98       0.98
-<END_TIMER>

- subtotal                                152.812  96.2       152.918  96.2                                  1.00       1.00

================================================================================

 Suggested references for the acknowledgment of ABINIT usage.

 The users of ABINIT have little formal obligations with respect to the ABINIT group
 (those specified in the GNU General Public License, http://www.gnu.org/copyleft/gpl.txt).
 However, it is common practice in the scientific literature,
 to acknowledge the efforts of people that have made the research possible.
 In this spirit, please find below suggested citations of work written by ABINIT developers,
 corresponding to implementations inside of ABINIT that you have used in the present run.
 Note also that it will be of great value to readers of publications presenting these results,
 to read papers enabling them to understand the theoretical formalism and details
 of the ABINIT implementation.
 For information on why they are suggested, see also https://docs.abinit.org/theory/acknowledgments.
-
- [1] Implementation of the Projector Augmented-Wave Method in the ABINIT code.
- M. Torrent, F. Jollet, F. Bottin, G. Zerah, and X. Gonze Comput. Mat. Science 42, 337, (2008).
- Comment: PAW calculations. Strong suggestion to cite this paper.
- DOI and bibtex: see https://docs.abinit.org/theory/bibliography/#torrent2008
-
- [2] Libxc: A library of exchange and correlation functionals for density functional theory.
- M.A.L. Marques, M.J.T. Oliveira, T. Burnus, Computer Physics Communications 183, 2227 (2012).
- Comment: to be cited when LibXC is used (negative value of ixc)
- Strong suggestion to cite this paper.
- DOI and bibtex: see https://docs.abinit.org/theory/bibliography/#marques2012
-
- [3] The Abinit project: Impact, environment and recent developments.
- Computer Phys. Comm. 248, 107042 (2020).
- X.Gonze, B. Amadon, G. Antonius, F.Arnardi, L.Baguet, J.-M.Beuken,
- J.Bieder, F.Bottin, J.Bouchet, E.Bousquet, N.Brouwer, F.Bruneval,
- G.Brunin, T.Cavignac, J.-B. Charraud, Wei Chen, M.Cote, S.Cottenier,
- J.Denier, G.Geneste, Ph.Ghosez, M.Giantomassi, Y.Gillet, O.Gingras,
- D.R.Hamann, G.Hautier, Xu He, N.Helbig, N.Holzwarth, Y.Jia, F.Jollet,
- W.Lafargue-Dit-Hauret, K.Lejaeghere, M.A.L.Marques, A.Martin, C.Martins,
- H.P.C. Miranda, F.Naccarato, K. Persson, G.Petretto, V.Planes, Y.Pouillon,
- S.Prokhorenko, F.Ricci, G.-M.Rignanese, A.H.Romero, M.M.Schmitt, M.Torrent,
- M.J.van Setten, B.Van Troeye, M.J.Verstraete, G.Zerah and J.W.Zwanzig
- Comment: the fifth generic paper describing the ABINIT project.
- Note that a version of this paper, that is not formatted for Computer Phys. Comm. 
- is available at https://www.abinit.org/sites/default/files/ABINIT20.pdf .
- The licence allows the authors to put it on the Web.
- DOI and bibtex: see https://docs.abinit.org/theory/bibliography/#gonze2020
-
- [4] ABINIT: Overview, and focus on selected capabilities
- J. Chem. Phys. 152, 124102 (2020).
- A. Romero, D.C. Allan, B. Amadon, G. Antonius, T. Applencourt, L.Baguet,
- J.Bieder, F.Bottin, J.Bouchet, E.Bousquet, F.Bruneval,
- G.Brunin, D.Caliste, M.Cote,
- J.Denier, C. Dreyer, Ph.Ghosez, M.Giantomassi, Y.Gillet, O.Gingras,
- D.R.Hamann, G.Hautier, F.Jollet, G. Jomard,
- A.Martin, 
- H.P.C. Miranda, F.Naccarato, G.Petretto, N.A. Pike, V.Planes,
- S.Prokhorenko, T. Rangel, F.Ricci, G.-M.Rignanese, M.Royo, M.Stengel, M.Torrent,
- M.J.van Setten, B.Van Troeye, M.J.Verstraete, J.Wiktor, J.W.Zwanziger, and X.Gonze.
- Comment: a global overview of ABINIT, with focus on selected capabilities .
- Note that a version of this paper, that is not formatted for J. Chem. Phys 
- is available at https://www.abinit.org/sites/default/files/ABINIT20_JPC.pdf .
- The licence allows the authors to put it on the Web.
- DOI and bibtex: see https://docs.abinit.org/theory/bibliography/#romero2020
-
- [5] Recent developments in the ABINIT software package.
- Computer Phys. Comm. 205, 106 (2016).
- X.Gonze, F.Jollet, F.Abreu Araujo, D.Adams, B.Amadon, T.Applencourt,
- C.Audouze, J.-M.Beuken, J.Bieder, A.Bokhanchuk, E.Bousquet, F.Bruneval
- D.Caliste, M.Cote, F.Dahm, F.Da Pieve, M.Delaveau, M.Di Gennaro,
- B.Dorado, C.Espejo, G.Geneste, L.Genovese, A.Gerossier, M.Giantomassi,
- Y.Gillet, D.R.Hamann, L.He, G.Jomard, J.Laflamme Janssen, S.Le Roux,
- A.Levitt, A.Lherbier, F.Liu, I.Lukacevic, A.Martin, C.Martins,
- M.J.T.Oliveira, S.Ponce, Y.Pouillon, T.Rangel, G.-M.Rignanese,
- A.H.Romero, B.Rousseau, O.Rubel, A.A.Shukri, M.Stankovski, M.Torrent,
- M.J.Van Setten, B.Van Troeye, M.J.Verstraete, D.Waroquier, J.Wiktor,
- B.Xu, A.Zhou, J.W.Zwanziger.
- Comment: the fourth generic paper describing the ABINIT project.
- Note that a version of this paper, that is not formatted for Computer Phys. Comm. 
- is available at https://www.abinit.org/sites/default/files/ABINIT16.pdf .
- The licence allows the authors to put it on the Web.
- DOI and bibtex: see https://docs.abinit.org/theory/bibliography/#gonze2016
-
- Proc.   0 individual time (sec): cpu=        158.8  wall=        158.9

================================================================================

 Calculation completed.
.Delivered  94 WARNINGs and  33 COMMENTs to log file.
+Overall time at end (sec) : cpu=        158.8  wall=        158.9
