
.Version 8.11.12 of ABINIT 
.(MPI version, prepared for a x86_64_linux_gnu9.2 computer) 

.Copyright (C) 1998-2020 ABINIT group . 
 ABINIT comes with ABSOLUTELY NO WARRANTY.
 It is free software, and you are welcome to redistribute it
 under certain conditions (GNU General Public License,
 see ~abinit/COPYING or http://www.gnu.org/copyleft/gpl.txt).

 ABINIT is a project of the Universite Catholique de Louvain,
 Corning Inc. and other collaborators, see ~abinit/doc/developers/contributors.txt .
 Please read https://docs.abinit.org/theory/acknowledgments for suggested
 acknowledgments of the ABINIT effort.
 For more information, see https://www.abinit.org .

.Starting date : Mon 25 Nov 2019.
- ( at 08h22 )
  
- input  file    -> tnuc_1.in
- output file    -> tnuc_1.out
- root for input  files -> tnuc_1i
- root for output files -> tnuc_1o


 Symmetries : space group P4_2/m n m (#136); Bravais tP (primitive tetrag.)
================================================================================
 Values of the parameters that define the memory need of the present run
     intxc =       0    ionmov =       0      iscf =      17    lmnmax =       8
     lnmax =       4     mgfft =      32  mpssoang =       2    mqgrid =    3001
     natom =       6  nloc_mem =       2    nspden =       1   nspinor =       1
    nsppol =       1      nsym =      16    n1xccc =       1    ntypat =       2
    occopt =       1   xclevel =       2
-    mband =          17        mffmem =           1         mkmem =          30
       mpw =        1356          nfft =       24576          nkpt =          30
 PAW method is used; the additional fine FFT grid is defined by:
   mgfftf=        36    nfftf =     31104
================================================================================
P This job should need less than                      25.453 Mbytes of memory.
  Rough estimation (10% accuracy) of disk space for files :
_ WF disk file :     10.554 Mbytes ; DEN or POT disk file :      0.239 Mbytes.
================================================================================

--------------------------------------------------------------------------------
------------- Echo of variables that govern the present computation ------------
--------------------------------------------------------------------------------
-
- outvars: echo of selected default values                                      
-   iomode0 =  0 , fftalg0 =312 , wfoptalg0 = 10
-
- outvars: echo of global parameters not present in the input file              
-  max_nthreads =    0
-
 -outvars: echo values of preprocessed input variables --------
            acell      7.8971655093E+00  7.8971655093E+00  5.0359311715E+00 Bohr
              amu      2.80855000E+01  1.59994000E+01
             ecut      2.00000000E+01 Hartree
-          fftalg         312
              ixc          11
              kpt      6.25000000E-02  6.25000000E-02  8.33333333E-02
                       1.87500000E-01  6.25000000E-02  8.33333333E-02
                       3.12500000E-01  6.25000000E-02  8.33333333E-02
                       4.37500000E-01  6.25000000E-02  8.33333333E-02
                       1.87500000E-01  1.87500000E-01  8.33333333E-02
                       3.12500000E-01  1.87500000E-01  8.33333333E-02
                       4.37500000E-01  1.87500000E-01  8.33333333E-02
                       3.12500000E-01  3.12500000E-01  8.33333333E-02
                       4.37500000E-01  3.12500000E-01  8.33333333E-02
                       4.37500000E-01  4.37500000E-01  8.33333333E-02
                       6.25000000E-02  6.25000000E-02  2.50000000E-01
                       1.87500000E-01  6.25000000E-02  2.50000000E-01
                       3.12500000E-01  6.25000000E-02  2.50000000E-01
                       4.37500000E-01  6.25000000E-02  2.50000000E-01
                       1.87500000E-01  1.87500000E-01  2.50000000E-01
                       3.12500000E-01  1.87500000E-01  2.50000000E-01
                       4.37500000E-01  1.87500000E-01  2.50000000E-01
                       3.12500000E-01  3.12500000E-01  2.50000000E-01
                       4.37500000E-01  3.12500000E-01  2.50000000E-01
                       4.37500000E-01  4.37500000E-01  2.50000000E-01
                       6.25000000E-02  6.25000000E-02  4.16666667E-01
                       1.87500000E-01  6.25000000E-02  4.16666667E-01
                       3.12500000E-01  6.25000000E-02  4.16666667E-01
                       4.37500000E-01  6.25000000E-02  4.16666667E-01
                       1.87500000E-01  1.87500000E-01  4.16666667E-01
                       3.12500000E-01  1.87500000E-01  4.16666667E-01
                       4.37500000E-01  1.87500000E-01  4.16666667E-01
                       3.12500000E-01  3.12500000E-01  4.16666667E-01
                       4.37500000E-01  3.12500000E-01  4.16666667E-01
                       4.37500000E-01  4.37500000E-01  4.16666667E-01
         kptrlatt        8    0    0      0    8    0      0    0    6
          kptrlen      3.02155870E+01
P           mkmem          30
            natom           6
            nband          17
            ngfft          32      32      24
          ngfftdg          36      36      24
             nkpt          30
            nstep          10
             nsym          16
           ntypat           2
              occ      2.000000  2.000000  2.000000  2.000000  2.000000  2.000000
                       2.000000  2.000000  2.000000  2.000000  2.000000  2.000000
                       2.000000  2.000000  2.000000  2.000000  0.000000
        pawecutdg      2.50000000E+01 Hartree
           prtden           0
           prtefg           2
           prteig           0
            prtwf           0
          quadmom      0.00000000E+00 -2.55800000E-02
           shiftk      5.00000000E-01  5.00000000E-01  5.00000000E-01
          spgroup         136
           symrel      1  0  0   0  1  0   0  0  1       0  1  0  -1  0  0   0  0  1
                      -1  0  0   0  1  0   0  0 -1      -1  0  0   0 -1  0   0  0  1
                       0 -1  0  -1  0  0   0  0 -1       0  1  0   1  0  0   0  0 -1
                       0 -1  0   1  0  0   0  0  1       1  0  0   0 -1  0   0  0 -1
                      -1  0  0   0 -1  0   0  0 -1       0 -1  0   1  0  0   0  0 -1
                       1  0  0   0 -1  0   0  0  1       1  0  0   0  1  0   0  0 -1
                       0  1  0   1  0  0   0  0  1       0 -1  0  -1  0  0   0  0  1
                       0  1  0  -1  0  0   0  0 -1      -1  0  0   0  1  0   0  0  1
            tnons      0.0000000  0.0000000  0.0000000     0.5000000  0.5000000  0.5000000
                       0.5000000  0.5000000  0.5000000     0.0000000  0.0000000  0.0000000
                       0.0000000  0.0000000  0.0000000     0.0000000  0.0000000  0.0000000
                       0.5000000  0.5000000  0.5000000     0.5000000  0.5000000  0.5000000
                      -0.0000000 -0.0000000 -0.0000000     0.5000000  0.5000000  0.5000000
                       0.5000000  0.5000000  0.5000000    -0.0000000 -0.0000000 -0.0000000
                      -0.0000000 -0.0000000 -0.0000000    -0.0000000 -0.0000000 -0.0000000
                       0.5000000  0.5000000  0.5000000     0.5000000  0.5000000  0.5000000
           tolvrs      1.00000000E-18
            typat      1  2  1  2  2  2
           useylm           1
              wtk        0.02083    0.04167    0.04167    0.04167    0.02083    0.04167
                         0.04167    0.02083    0.04167    0.02083    0.02083    0.04167
                         0.04167    0.04167    0.02083    0.04167    0.04167    0.02083
                         0.04167    0.02083    0.02083    0.04167    0.04167    0.04167
                         0.02083    0.04167    0.04167    0.02083    0.04167    0.02083
           xangst      0.0000000000E+00  0.0000000000E+00  0.0000000000E+00
                       1.2796098000E+00  1.2796098000E+00  0.0000000000E+00
                       2.0895000000E+00  2.0895000000E+00  1.3324500000E+00
                       8.0989020000E-01  3.3691098000E+00  1.3324500000E+00
                       2.8993902000E+00  2.8993902000E+00  0.0000000000E+00
                       3.3691098000E+00  8.0989020000E-01  1.3324500000E+00
            xcart      0.0000000000E+00  0.0000000000E+00  0.0000000000E+00
                       2.4181120790E+00  2.4181120790E+00  0.0000000000E+00
                       3.9485827547E+00  3.9485827547E+00  2.5179655858E+00
                       1.5304706757E+00  6.3666948336E+00  2.5179655858E+00
                       5.4790534304E+00  5.4790534304E+00  0.0000000000E+00
                       6.3666948336E+00  1.5304706757E+00  2.5179655858E+00
             xred      0.0000000000E+00  0.0000000000E+00  0.0000000000E+00
                       3.0620000000E-01  3.0620000000E-01  0.0000000000E+00
                       5.0000000000E-01  5.0000000000E-01  5.0000000000E-01
                       1.9380000000E-01  8.0620000000E-01  5.0000000000E-01
                       6.9380000000E-01  6.9380000000E-01  0.0000000000E+00
                       8.0620000000E-01  1.9380000000E-01  5.0000000000E-01
            znucl       14.00000    8.00000

================================================================================

 chkinp: Checking input parameters for consistency.

================================================================================
== DATASET  1 ==================================================================
-   nproc =    1

 Exchange-correlation functional for the present dataset will be:
  GGA: Perdew-Burke-Ernzerhof functional - ixc=11
 Citation for XC functional:
  J.P.Perdew, K.Burke, M.Ernzerhof, PRL 77, 3865 (1996)

 Real(R)+Recip(G) space primitive vectors, cartesian coordinates (Bohr,Bohr^-1):
 R(1)=  7.8971655  0.0000000  0.0000000  G(1)=  0.1266277  0.0000000  0.0000000
 R(2)=  0.0000000  7.8971655  0.0000000  G(2)=  0.0000000  0.1266277  0.0000000
 R(3)=  0.0000000  0.0000000  5.0359312  G(3)=  0.0000000  0.0000000  0.1985730
 Unit cell volume ucvol=  3.1406697E+02 bohr^3
 Angles (23,13,12)=  9.00000000E+01  9.00000000E+01  9.00000000E+01 degrees

 Coarse grid specifications (used for wave-functions):

 getcut: wavevector=  0.0000  0.0000  0.0000  ngfft=  32  32  24
         ecut(hartree)=     20.000   => boxcut(ratio)=   2.01279

 Fine grid specifications (used for densities):

 getcut: wavevector=  0.0000  0.0000  0.0000  ngfft=  36  36  24
         ecut(hartree)=     25.000   => boxcut(ratio)=   2.02533

--- Pseudopotential description ------------------------------------------------
- pspini: atom type   1  psp file is /home/buildbot/bb/ABINIT/abiref_gnu_9.2_openmpi/trunk__gonze3/tests/Psps_for_tests/Si.GGA-PBE-rpaw-1.55.abinit
- pspatm: opening atomic psp file    /home/buildbot/bb/ABINIT/abiref_gnu_9.2_openmpi/trunk__gonze3/tests/Psps_for_tests/Si.GGA-PBE-rpaw-1.55.abinit
- Paw atomic data for element Si - Generated by atompaw v3.0.1.3 & AtomPAW2Abinit v3.3.1
- 14.00000   4.00000  20120814                znucl, zion, pspdat
    7   11    1    0       663   0.00000      pspcod,pspxc,lmax,lloc,mmax,r2well
 Pseudopotential format is: paw5
 basis_size (lnmax)=  4 (lmn_size=  8), orbitals=   0   0   1   1
 Spheres core radius: rc_sph= 1.56696712
 5 radial meshes are used:
  - mesh 1: r(i)=AA*[exp(BB*(i-1))-1], size= 663 , AA= 0.82130E-03 BB= 0.11498E-01
  - mesh 2: r(i)=AA*[exp(BB*(i-1))-1], size= 658 , AA= 0.82130E-03 BB= 0.11498E-01
  - mesh 3: r(i)=AA*[exp(BB*(i-1))-1], size= 740 , AA= 0.82130E-03 BB= 0.11498E-01
  - mesh 4: r(i)=AA*[exp(BB*(i-1))-1], size= 819 , AA= 0.82130E-03 BB= 0.11498E-01
  - mesh 5: r(i)=AA*[exp(BB*(i-1))-1], size= 870 , AA= 0.82130E-03 BB= 0.11498E-01
 Shapefunction is SIN type: shapef(r)=[sin(pi*r/rshp)/(pi*r/rshp)]**2
 Radius for shape functions = sphere core radius
 Radial grid used for partial waves is grid 1
 Radial grid used for projectors is grid  2
 Radial grid used for (t)core density is grid 3
 Radial grid used for Vloc is grid 4
 Radial grid used for pseudo valence density is grid 5
 Compensation charge density is not taken into account in XC energy/potential
 pspatm: atomic psp has been read  and splines computed

- pspini: atom type   2  psp file is /home/buildbot/bb/ABINIT/abiref_gnu_9.2_openmpi/trunk__gonze3/tests/Psps_for_tests/O.GGA-PBE-rpaw-1.45.abinit
- pspatm: opening atomic psp file    /home/buildbot/bb/ABINIT/abiref_gnu_9.2_openmpi/trunk__gonze3/tests/Psps_for_tests/O.GGA-PBE-rpaw-1.45.abinit
- Paw atomic data for element O - Generated by atompaw v3.0.1.3 & AtomPAW2Abinit v3.3.1
-  8.00000   6.00000  20120814                znucl, zion, pspdat
    7   11    1    0       775   0.00000      pspcod,pspxc,lmax,lloc,mmax,r2well
 Pseudopotential format is: paw5
 basis_size (lnmax)=  4 (lmn_size=  8), orbitals=   0   0   1   1
 Spheres core radius: rc_sph= 1.46198590
 5 radial meshes are used:
  - mesh 1: r(i)=AA*[exp(BB*(i-1))-1], size= 775 , AA= 0.11605E-02 BB= 0.92841E-02
  - mesh 2: r(i)=AA*[exp(BB*(i-1))-1], size= 770 , AA= 0.11605E-02 BB= 0.92841E-02
  - mesh 3: r(i)=AA*[exp(BB*(i-1))-1], size= 781 , AA= 0.11605E-02 BB= 0.92841E-02
  - mesh 4: r(i)=AA*[exp(BB*(i-1))-1], size= 977 , AA= 0.11605E-02 BB= 0.92841E-02
  - mesh 5: r(i)=AA*[exp(BB*(i-1))-1], size= 999 , AA= 0.11605E-02 BB= 0.92841E-02
 Shapefunction is SIN type: shapef(r)=[sin(pi*r/rshp)/(pi*r/rshp)]**2
 Radius for shape functions = sphere core radius
 Radial grid used for partial waves is grid 1
 Radial grid used for projectors is grid  2
 Radial grid used for (t)core density is grid 3
 Radial grid used for Vloc is grid 4
 Radial grid used for pseudo valence density is grid 5
 Compensation charge density is not taken into account in XC energy/potential
 pspatm: atomic psp has been read  and splines computed

   9.09546953E+02                                ecore*ucvol(ha*bohr**3)
--------------------------------------------------------------------------------

_setup2: Arith. and geom. avg. npw (full set) are    1341.500    1341.475

================================================================================

     iter   Etot(hartree)      deltaE(h)  residm     nres2
 ETOT  1  -72.873189248813    -7.287E+01 1.634E-01 2.280E+01
 ETOT  2  -72.790564459760     8.262E-02 9.354E-03 5.772E+00
 ETOT  3  -72.769527725255     2.104E-02 2.526E-03 3.737E-01
 ETOT  4  -72.770184388399    -6.567E-04 2.503E-03 3.170E-03
 ETOT  5  -72.770200427649    -1.604E-05 1.211E-03 4.184E-04
 ETOT  6  -72.770202459210    -2.032E-06 4.787E-04 9.462E-06
 ETOT  7  -72.770202524842    -6.563E-08 1.649E-04 2.580E-06
 ETOT  8  -72.770202543297    -1.845E-08 1.463E-04 7.296E-08
 ETOT  9  -72.770202543189     1.079E-10 8.286E-05 1.888E-09
 ETOT 10  -72.770202543160     2.936E-11 1.519E-04 3.607E-10

 Cartesian components of stress tensor (hartree/bohr^3)
  sigma(1 1)= -5.14809873E-04  sigma(3 2)=  0.00000000E+00
  sigma(2 2)= -5.14809873E-04  sigma(3 1)=  0.00000000E+00
  sigma(3 3)= -6.66805576E-04  sigma(2 1)=  0.00000000E+00


 scprqt:  WARNING -
  nstep=   10 was not enough SCF cycles to converge;
  density residual=  3.607E-10 exceeds tolvrs=  1.000E-18

 Integrated electronic density in atomic spheres:
 ------------------------------------------------
 Atom  Sphere_radius  Integrated_density
    1        1.56697          0.79407091
    2        1.46199          4.92513417
    3        1.56697          0.79407091
    4        1.46199          4.92513417
    5        1.46199          4.92513417
    6        1.46199          4.92513417

 PAW TEST:
 ==== Compensation charge inside spheres ============
 The following values must be close to each other ...
 Compensation charge over spherical meshes =      2.895588519733550
 Compensation charge over fine fft grid    =      2.895478948159794

 ==== Results concerning PAW augmentation regions ====

 Total pseudopotential strength Dij (hartree):
 Atom #  1
   0.32635  -0.01138   0.00000   0.00000   0.00000   0.00000   0.00000   0.00000
  -0.01138  -0.24012   0.00000   0.00000   0.00000   0.00000   0.00000   0.00000
   0.00000   0.00000   0.10530   0.00000  -0.00001  -0.03507   0.00000   0.00001
   0.00000   0.00000   0.00000   0.10534   0.00000   0.00000  -0.03508   0.00000
   0.00000   0.00000  -0.00001   0.00000   0.10530   0.00001   0.00000  -0.03507
   0.00000   0.00000  -0.03507   0.00000   0.00001  -0.79712   0.00000  -0.00011
   0.00000   0.00000   0.00000  -0.03508   0.00000   0.00000  -0.79714   0.00000
   0.00000   0.00000   0.00001   0.00000  -0.03507  -0.00011   0.00000  -0.79712
 Atom #  6
   0.41746   1.41220   0.00061   0.00000  -0.00061   0.00046   0.00000  -0.00046
   1.41220   4.79062   0.00204   0.00000  -0.00204   0.00154   0.00000  -0.00154
   0.00061   0.00204  -0.32362   0.00000   0.00234  -0.32194   0.00000   0.00196
   0.00000   0.00000   0.00000  -0.32498   0.00000   0.00000  -0.32308   0.00000
  -0.00061  -0.00204   0.00234   0.00000  -0.32362   0.00196   0.00000  -0.32194
   0.00046   0.00154  -0.32194   0.00000   0.00196  -0.30441   0.00000   0.00164
   0.00000   0.00000   0.00000  -0.32308   0.00000   0.00000  -0.30536   0.00000
  -0.00046  -0.00154   0.00196   0.00000  -0.32194   0.00164   0.00000  -0.30441


 Augmentation waves occupancies Rhoij:
 Atom #  1
   1.09304  -0.00367   0.00000   0.00000   0.00000   0.00000   0.00000   0.00000
  -0.00367   0.00006   0.00000   0.00000   0.00000   0.00000   0.00000   0.00000
   0.00000   0.00000   0.82124   0.00000  -0.04299  -0.00627   0.00000   0.00014
   0.00000   0.00000   0.00000   0.90307   0.00000   0.00000  -0.00739   0.00000
   0.00000   0.00000  -0.04299   0.00000   0.82124   0.00014   0.00000  -0.00627
   0.00000   0.00000  -0.00627   0.00000   0.00014   0.00006   0.00000  -0.00000
   0.00000   0.00000   0.00000  -0.00739   0.00000   0.00000   0.00008   0.00000
   0.00000   0.00000   0.00014   0.00000  -0.00627  -0.00000   0.00000   0.00006
 Atom #  6
   2.63714  -0.15463   0.01566   0.00000  -0.01566  -0.04203   0.00000   0.04203
  -0.15463   0.01575   0.00406   0.00000  -0.00406   0.00740   0.00000  -0.00740
   0.01566   0.00406   0.98102   0.00000   0.24888   0.27350   0.00000  -0.03362
   0.00000   0.00000   0.00000   0.78075   0.00000   0.00000   0.31323   0.00000
  -0.01566  -0.00406   0.24888   0.00000   0.98102  -0.03362   0.00000   0.27350
  -0.04203   0.00740   0.27350   0.00000  -0.03362   0.17664   0.00000  -0.08600
   0.00000   0.00000   0.00000   0.31323   0.00000   0.00000   0.20585   0.00000
   0.04203  -0.00740  -0.03362   0.00000   0.27350  -0.08600   0.00000   0.17664



 Electric Field Gradient Calculation 

 Atom   1, typat   1: Cq =      0.000000 MHz     eta =      0.000000

      efg eigval :     -0.165960
-         eigvec :     -0.000000    -0.000000    -1.000000
      efg eigval :     -0.042510
-         eigvec :      0.707107    -0.707107    -0.000000
      efg eigval :      0.208470
-         eigvec :      0.707107     0.707107    -0.000000

      total efg :      0.082980     0.125490    -0.000000
      total efg :      0.125490     0.082980    -0.000000
      total efg :      0.000000     0.000000    -0.165960


      efg_el :      0.105888     0.000019    -0.000000
      efg_el :      0.000019     0.105888    -0.000000
      efg_el :      0.000000     0.000000    -0.211776

      efg_ion :     -0.102351     0.007811     0.000000
      efg_ion :      0.007811    -0.102351     0.000000
      efg_ion :      0.000000     0.000000     0.204701

      efg_paw :      0.079443     0.117660    -0.000000
      efg_paw :      0.117660     0.079443    -0.000000
      efg_paw :      0.000000     0.000000    -0.158885

 Atom   2, typat   2: Cq =      6.603688 MHz     eta =      0.140953

      efg eigval :     -1.098710
-         eigvec :      0.707107    -0.707107     0.000000
      efg eigval :      0.471922
-         eigvec :      0.000000     0.000000     1.000000
      efg eigval :      0.626789
-         eigvec :     -0.707107    -0.707107     0.000000

      total efg :     -0.235961     0.862750    -0.000000
      total efg :      0.862750    -0.235961    -0.000000
      total efg :      0.000000     0.000000     0.471922


      efg_el :     -0.044260    -0.065290     0.000000
      efg_el :     -0.065290    -0.044260     0.000000
      efg_el :      0.000000     0.000000     0.088520

      efg_ion :     -0.017255     0.306132    -0.000000
      efg_ion :      0.306132    -0.017255    -0.000000
      efg_ion :      0.000000     0.000000     0.034509

      efg_paw :     -0.174446     0.621908    -0.000000
      efg_paw :      0.621908    -0.174446    -0.000000
      efg_paw :      0.000000     0.000000     0.348892

 Atom   3, typat   1: Cq =      0.000000 MHz     eta =      0.000000

      efg eigval :     -0.165960
-         eigvec :      0.000000     0.000000     1.000000
      efg eigval :     -0.042483
-         eigvec :      0.707107     0.707107    -0.000000
      efg eigval :      0.208444
-         eigvec :     -0.707107     0.707107    -0.000000

      total efg :      0.082980    -0.125464    -0.000000
      total efg :     -0.125464     0.082980    -0.000000
      total efg :      0.000000     0.000000    -0.165960


      efg_el :      0.105888     0.000007    -0.000000
      efg_el :      0.000007     0.105888    -0.000000
      efg_el :      0.000000     0.000000    -0.211776

      efg_ion :     -0.102351    -0.007811     0.000000
      efg_ion :     -0.007811    -0.102351     0.000000
      efg_ion :      0.000000     0.000000     0.204701

      efg_paw :      0.079443    -0.117660    -0.000000
      efg_paw :     -0.117660     0.079443    -0.000000
      efg_paw :      0.000000     0.000000    -0.158885

 Atom   4, typat   2: Cq =      6.603529 MHz     eta =      0.140933

      efg eigval :     -1.098684
-         eigvec :      0.707107     0.707107    -0.000000
      efg eigval :      0.471922
-         eigvec :     -0.000000    -0.000000    -1.000000
      efg eigval :      0.626762
-         eigvec :      0.707107    -0.707107     0.000000

      total efg :     -0.235961    -0.862723     0.000000
      total efg :     -0.862723    -0.235961     0.000000
      total efg :      0.000000     0.000000     0.471922


      efg_el :     -0.044260     0.065316     0.000000
      efg_el :      0.065316    -0.044260     0.000000
      efg_el :      0.000000     0.000000     0.088520

      efg_ion :     -0.017255    -0.306132     0.000000
      efg_ion :     -0.306132    -0.017255     0.000000
      efg_ion :      0.000000     0.000000     0.034509

      efg_paw :     -0.174446    -0.621908     0.000000
      efg_paw :     -0.621908    -0.174446     0.000000
      efg_paw :      0.000000     0.000000     0.348892

 Atom   5, typat   2: Cq =      6.603688 MHz     eta =      0.140953

      efg eigval :     -1.098710
-         eigvec :      0.707107    -0.707107     0.000000
      efg eigval :      0.471922
-         eigvec :      0.000000     0.000000     1.000000
      efg eigval :      0.626789
-         eigvec :     -0.707107    -0.707107     0.000000

      total efg :     -0.235961     0.862750    -0.000000
      total efg :      0.862750    -0.235961    -0.000000
      total efg :      0.000000     0.000000     0.471922


      efg_el :     -0.044260    -0.065290     0.000000
      efg_el :     -0.065290    -0.044260     0.000000
      efg_el :      0.000000     0.000000     0.088520

      efg_ion :     -0.017255     0.306132    -0.000000
      efg_ion :      0.306132    -0.017255    -0.000000
      efg_ion :      0.000000     0.000000     0.034509

      efg_paw :     -0.174446     0.621908    -0.000000
      efg_paw :      0.621908    -0.174446    -0.000000
      efg_paw :      0.000000     0.000000     0.348892

 Atom   6, typat   2: Cq =      6.603529 MHz     eta =      0.140933

      efg eigval :     -1.098684
-         eigvec :      0.707107     0.707107    -0.000000
      efg eigval :      0.471922
-         eigvec :     -0.000000    -0.000000    -1.000000
      efg eigval :      0.626762
-         eigvec :      0.707107    -0.707107     0.000000

      total efg :     -0.235961    -0.862723     0.000000
      total efg :     -0.862723    -0.235961     0.000000
      total efg :      0.000000     0.000000     0.471922


      efg_el :     -0.044260     0.065316     0.000000
      efg_el :      0.065316    -0.044260     0.000000
      efg_el :      0.000000     0.000000     0.088520

      efg_ion :     -0.017255    -0.306132     0.000000
      efg_ion :     -0.306132    -0.017255     0.000000
      efg_ion :      0.000000     0.000000     0.034509

      efg_paw :     -0.174446    -0.621908     0.000000
      efg_paw :     -0.621908    -0.174446     0.000000
      efg_paw :      0.000000     0.000000     0.348892





================================================================================

 ----iterations are completed or convergence reached----

 Mean square residual over all n,k,spin=   75.002E-08; max=  15.194E-05
 reduced coordinates (array xred) for    6 atoms
       0.000000000000      0.000000000000      0.000000000000
       0.306200000000      0.306200000000      0.000000000000
       0.500000000000      0.500000000000      0.500000000000
       0.193800000000      0.806200000000      0.500000000000
       0.693800000000      0.693800000000      0.000000000000
       0.806200000000      0.193800000000      0.500000000000
 rms dE/dt=  1.9676E-02; max dE/dt=  2.9513E-02; dE/dt below (all hartree)
    1       0.000000000000      0.000000000000      0.000000000000
    2       0.029513467435      0.029513467435      0.000000000000
    3       0.000000000000      0.000000000000      0.000000000000
    4      -0.029513467435      0.029513467435      0.000000000000
    5      -0.029513467435     -0.029513467435      0.000000000000
    6       0.029513467435     -0.029513467435      0.000000000000

 cartesian coordinates (angstrom) at end:
    1      0.00000000000000     0.00000000000000     0.00000000000000
    2      1.27960980000000     1.27960980000000     0.00000000000000
    3      2.08950000000000     2.08950000000000     1.33245000000000
    4      0.80989020000000     3.36910980000000     1.33245000000000
    5      2.89939020000000     2.89939020000000     0.00000000000000
    6      3.36910980000000     0.80989020000000     1.33245000000000

 cartesian forces (hartree/bohr) at end:
    1     -0.00000000000000     0.00000000000000    -0.00000000000000
    2     -0.00373722285546    -0.00373722285546     0.00000000000000
    3     -0.00000000000000     0.00000000000000    -0.00000000000000
    4      0.00373722285546    -0.00373722285546     0.00000000000000
    5      0.00373722285546     0.00373722285546    -0.00000000000000
    6     -0.00373722285546     0.00373722285546    -0.00000000000000
 frms,max,avg= 2.4914819E-03 3.7372229E-03   0.000E+00  0.000E+00  0.000E+00 h/b

 cartesian forces (eV/Angstrom) at end:
    1     -0.00000000000000     0.00000000000000    -0.00000000000000
    2     -0.19217570983696    -0.19217570983696     0.00000000000000
    3     -0.00000000000000     0.00000000000000    -0.00000000000000
    4      0.19217570983696    -0.19217570983696     0.00000000000000
    5      0.19217570983696     0.19217570983696    -0.00000000000000
    6     -0.19217570983696     0.19217570983696    -0.00000000000000
 frms,max,avg= 1.2811714E-01 1.9217571E-01   0.000E+00  0.000E+00  0.000E+00 e/A
 length scales=  7.897165509329  7.897165509329  5.035931171527 bohr
              =  4.179000000000  4.179000000000  2.664900000000 angstroms
 Fermi (or HOMO) energy (hartree) =   0.30001   Average Vxc (hartree)=  -0.44213
 Eigenvalues (hartree) for nkpt=  30  k points:
 kpt#   1, nband= 17, wtk=  0.02083, kpt=  0.0625  0.0625  0.0833 (reduced coord)
  -0.52031   -0.39905   -0.38996   -0.37429   -0.09159    0.06007    0.06724    0.08498
   0.09731    0.12195    0.17688    0.17853    0.19904    0.26518    0.26855    0.30001
   0.52986
 prteigrs : prtvol=0 or 1, do not print more k-points.


--------------------------------------------------------------------------------
 Components of total free energy (in Hartree) :

    Kinetic energy  =  3.35806051547081E+01
    Hartree energy  =  1.52832171535817E+01
    XC energy       = -1.47662591096310E+01
    Ewald energy    = -6.39241782892681E+01
    PspCore energy  =  2.89602867168495E+00
    Loc. psp. energy= -4.77331744433883E+01
    Spherical terms =  1.89355406578089E+00
    >>>>>>>>> Etotal= -7.27702067965318E+01

 "Double-counting" decomposition of free energy:
    Band energy     = -2.67862448350013E-01
    Ewald energy    =-6.39241782892681E+01
    PspCore energy  =  2.89602867168495E+00
    Dble-C XC-energy= -1.13533960052956E+01
    Spherical terms = -1.20794471930768E-01
    >>>> Etotal (DC)= -7.27702025431595E+01

  >Total energy in eV           = -1.98017803071201E+03
  >Total DC energy in eV        = -1.98017791497186E+03
--------------------------------------------------------------------------------



 Cartesian components of stress tensor (hartree/bohr^3)
  sigma(1 1)= -5.14809873E-04  sigma(3 2)=  0.00000000E+00
  sigma(2 2)= -5.14809873E-04  sigma(3 1)=  0.00000000E+00
  sigma(3 3)= -6.66805576E-04  sigma(2 1)=  0.00000000E+00

-Cartesian components of stress tensor (GPa)         [Pressure=  1.6637E+01 GPa]
- sigma(1 1)= -1.51462268E+01  sigma(3 2)=  0.00000000E+00
- sigma(2 2)= -1.51462268E+01  sigma(3 1)=  0.00000000E+00
- sigma(3 3)= -1.96180941E+01  sigma(2 1)=  0.00000000E+00

== END DATASET(S) ==============================================================
================================================================================
  
 -outvars: echo values of variables after computation  --------
            acell      7.8971655093E+00  7.8971655093E+00  5.0359311715E+00 Bohr
              amu      2.80855000E+01  1.59994000E+01
             ecut      2.00000000E+01 Hartree
           etotal     -7.2770202543E+01
            fcart     -7.2280144832E-20  2.1684043450E-19 -8.1365530205E-36
                      -3.7372228555E-03 -3.7372228555E-03  4.5767780076E-19
                      -7.2280144832E-20  2.1684043450E-19 -8.1365530205E-36
                       3.7372228555E-03 -3.7372228555E-03  1.2439536694E-35
                       3.7372228555E-03  3.7372228555E-03 -4.5767780076E-19
                      -3.7372228555E-03  3.7372228555E-03 -5.5613732117E-35
-          fftalg         312
              ixc          11
              kpt      6.25000000E-02  6.25000000E-02  8.33333333E-02
                       1.87500000E-01  6.25000000E-02  8.33333333E-02
                       3.12500000E-01  6.25000000E-02  8.33333333E-02
                       4.37500000E-01  6.25000000E-02  8.33333333E-02
                       1.87500000E-01  1.87500000E-01  8.33333333E-02
                       3.12500000E-01  1.87500000E-01  8.33333333E-02
                       4.37500000E-01  1.87500000E-01  8.33333333E-02
                       3.12500000E-01  3.12500000E-01  8.33333333E-02
                       4.37500000E-01  3.12500000E-01  8.33333333E-02
                       4.37500000E-01  4.37500000E-01  8.33333333E-02
                       6.25000000E-02  6.25000000E-02  2.50000000E-01
                       1.87500000E-01  6.25000000E-02  2.50000000E-01
                       3.12500000E-01  6.25000000E-02  2.50000000E-01
                       4.37500000E-01  6.25000000E-02  2.50000000E-01
                       1.87500000E-01  1.87500000E-01  2.50000000E-01
                       3.12500000E-01  1.87500000E-01  2.50000000E-01
                       4.37500000E-01  1.87500000E-01  2.50000000E-01
                       3.12500000E-01  3.12500000E-01  2.50000000E-01
                       4.37500000E-01  3.12500000E-01  2.50000000E-01
                       4.37500000E-01  4.37500000E-01  2.50000000E-01
                       6.25000000E-02  6.25000000E-02  4.16666667E-01
                       1.87500000E-01  6.25000000E-02  4.16666667E-01
                       3.12500000E-01  6.25000000E-02  4.16666667E-01
                       4.37500000E-01  6.25000000E-02  4.16666667E-01
                       1.87500000E-01  1.87500000E-01  4.16666667E-01
                       3.12500000E-01  1.87500000E-01  4.16666667E-01
                       4.37500000E-01  1.87500000E-01  4.16666667E-01
                       3.12500000E-01  3.12500000E-01  4.16666667E-01
                       4.37500000E-01  3.12500000E-01  4.16666667E-01
                       4.37500000E-01  4.37500000E-01  4.16666667E-01
         kptrlatt        8    0    0      0    8    0      0    0    6
          kptrlen      3.02155870E+01
P           mkmem          30
            natom           6
            nband          17
            ngfft          32      32      24
          ngfftdg          36      36      24
             nkpt          30
            nstep          10
             nsym          16
           ntypat           2
              occ      2.000000  2.000000  2.000000  2.000000  2.000000  2.000000
                       2.000000  2.000000  2.000000  2.000000  2.000000  2.000000
                       2.000000  2.000000  2.000000  2.000000  0.000000
        pawecutdg      2.50000000E+01 Hartree
           prtden           0
           prtefg           2
           prteig           0
            prtwf           0
          quadmom      0.00000000E+00 -2.55800000E-02
           shiftk      5.00000000E-01  5.00000000E-01  5.00000000E-01
          spgroup         136
           strten     -5.1480987344E-04 -5.1480987344E-04 -6.6680557588E-04
                       0.0000000000E+00  0.0000000000E+00  0.0000000000E+00
           symrel      1  0  0   0  1  0   0  0  1       0  1  0  -1  0  0   0  0  1
                      -1  0  0   0  1  0   0  0 -1      -1  0  0   0 -1  0   0  0  1
                       0 -1  0  -1  0  0   0  0 -1       0  1  0   1  0  0   0  0 -1
                       0 -1  0   1  0  0   0  0  1       1  0  0   0 -1  0   0  0 -1
                      -1  0  0   0 -1  0   0  0 -1       0 -1  0   1  0  0   0  0 -1
                       1  0  0   0 -1  0   0  0  1       1  0  0   0  1  0   0  0 -1
                       0  1  0   1  0  0   0  0  1       0 -1  0  -1  0  0   0  0  1
                       0  1  0  -1  0  0   0  0 -1      -1  0  0   0  1  0   0  0  1
            tnons      0.0000000  0.0000000  0.0000000     0.5000000  0.5000000  0.5000000
                       0.5000000  0.5000000  0.5000000     0.0000000  0.0000000  0.0000000
                       0.0000000  0.0000000  0.0000000     0.0000000  0.0000000  0.0000000
                       0.5000000  0.5000000  0.5000000     0.5000000  0.5000000  0.5000000
                      -0.0000000 -0.0000000 -0.0000000     0.5000000  0.5000000  0.5000000
                       0.5000000  0.5000000  0.5000000    -0.0000000 -0.0000000 -0.0000000
                      -0.0000000 -0.0000000 -0.0000000    -0.0000000 -0.0000000 -0.0000000
                       0.5000000  0.5000000  0.5000000     0.5000000  0.5000000  0.5000000
           tolvrs      1.00000000E-18
            typat      1  2  1  2  2  2
           useylm           1
              wtk        0.02083    0.04167    0.04167    0.04167    0.02083    0.04167
                         0.04167    0.02083    0.04167    0.02083    0.02083    0.04167
                         0.04167    0.04167    0.02083    0.04167    0.04167    0.02083
                         0.04167    0.02083    0.02083    0.04167    0.04167    0.04167
                         0.02083    0.04167    0.04167    0.02083    0.04167    0.02083
           xangst      0.0000000000E+00  0.0000000000E+00  0.0000000000E+00
                       1.2796098000E+00  1.2796098000E+00  0.0000000000E+00
                       2.0895000000E+00  2.0895000000E+00  1.3324500000E+00
                       8.0989020000E-01  3.3691098000E+00  1.3324500000E+00
                       2.8993902000E+00  2.8993902000E+00  0.0000000000E+00
                       3.3691098000E+00  8.0989020000E-01  1.3324500000E+00
            xcart      0.0000000000E+00  0.0000000000E+00  0.0000000000E+00
                       2.4181120790E+00  2.4181120790E+00  0.0000000000E+00
                       3.9485827547E+00  3.9485827547E+00  2.5179655858E+00
                       1.5304706757E+00  6.3666948336E+00  2.5179655858E+00
                       5.4790534304E+00  5.4790534304E+00  0.0000000000E+00
                       6.3666948336E+00  1.5304706757E+00  2.5179655858E+00
             xred      0.0000000000E+00  0.0000000000E+00  0.0000000000E+00
                       3.0620000000E-01  3.0620000000E-01  0.0000000000E+00
                       5.0000000000E-01  5.0000000000E-01  5.0000000000E-01
                       1.9380000000E-01  8.0620000000E-01  5.0000000000E-01
                       6.9380000000E-01  6.9380000000E-01  0.0000000000E+00
                       8.0620000000E-01  1.9380000000E-01  5.0000000000E-01
            znucl       14.00000    8.00000

================================================================================


- Timing analysis has been suppressed with timopt=0



================================================================================

 Suggested references for the acknowledgment of ABINIT usage.

 The users of ABINIT have little formal obligations with respect to the ABINIT group
 (those specified in the GNU General Public License, http://www.gnu.org/copyleft/gpl.txt).
 However, it is common practice in the scientific literature,
 to acknowledge the efforts of people that have made the research possible.
 In this spirit, please find below suggested citations of work written by ABINIT developers,
 corresponding to implementations inside of ABINIT that you have used in the present run.
 Note also that it will be of great value to readers of publications presenting these results,
 to read papers enabling them to understand the theoretical formalism and details
 of the ABINIT implementation.
 For information on why they are suggested, see also https://docs.abinit.org/theory/acknowledgments.
-
- [1] First-principles calculation of electric field gradients in metals, semiconductors, and insulators.
- J.W. Zwanziger, M. Torrent, Applied Magnetic Resonance 33, 447-456 (2008).
- Comment: to be cited in case the computation of electric field gradient is used, i.e. prtefg>0 and usepaw=1.
- DOI and bibtex: see https://docs.abinit.org/theory/bibliography/#zwanziger2008
-
- [2] Implementation of the Projector Augmented-Wave Method in the ABINIT code.
- M. Torrent, F. Jollet, F. Bottin, G. Zerah, and X. Gonze Comput. Mat. Science 42, 337, (2008).
- Comment: PAW calculations. Strong suggestion to cite this paper.
- DOI and bibtex: see https://docs.abinit.org/theory/bibliography/#torrent2008
-
- [3] Recent developments in the ABINIT software package.
- Computer Phys. Comm. 205, 106 (2016).
- X.Gonze, F.Jollet, F.Abreu Araujo, D.Adams, B.Amadon, T.Applencourt,
- C.Audouze, J.-M.Beuken, J.Bieder, A.Bokhanchuk, E.Bousquet, F.Bruneval
- D.Caliste, M.Cote, F.Dahm, F.Da Pieve, M.Delaveau, M.Di Gennaro,
- B.Dorado, C.Espejo, G.Geneste, L.Genovese, A.Gerossier, M.Giantomassi,
- Y.Gillet, D.R.Hamann, L.He, G.Jomard, J.Laflamme Janssen, S.Le Roux,
- A.Levitt, A.Lherbier, F.Liu, I.Lukacevic, A.Martin, C.Martins,
- M.J.T.Oliveira, S.Ponce, Y.Pouillon, T.Rangel, G.-M.Rignanese,
- A.H.Romero, B.Rousseau, O.Rubel, A.A.Shukri, M.Stankovski, M.Torrent,
- M.J.Van Setten, B.Van Troeye, M.J.Verstraete, D.Waroquier, J.Wiktor,
- B.Xu, A.Zhou, J.W.Zwanziger.
- Comment: the fourth generic paper describing the ABINIT project.
- Note that a version of this paper, that is not formatted for Computer Phys. Comm. 
- is available at https://www.abinit.org/about/ABINIT16.pdf .
- The licence allows the authors to put it on the Web.
- DOI and bibtex: see https://docs.abinit.org/theory/bibliography/#gonze2016
-
- [4] ABINIT: First-principles approach of materials and nanosystem properties.
- Computer Phys. Comm. 180, 2582-2615 (2009).
- X. Gonze, B. Amadon, P.-M. Anglade, J.-M. Beuken, F. Bottin, P. Boulanger, F. Bruneval,
- D. Caliste, R. Caracas, M. Cote, T. Deutsch, L. Genovese, Ph. Ghosez, M. Giantomassi
- S. Goedecker, D.R. Hamann, P. Hermet, F. Jollet, G. Jomard, S. Leroux, M. Mancini, S. Mazevet,
- M.J.T. Oliveira, G. Onida, Y. Pouillon, T. Rangel, G.-M. Rignanese, D. Sangalli, R. Shaltaf,
- M. Torrent, M.J. Verstraete, G. Zerah, J.W. Zwanziger
- Comment: the third generic paper describing the ABINIT project.
- Note that a version of this paper, that is not formatted for Computer Phys. Comm. 
- is available at https://www.abinit.org/about/ABINIT_CPC_v10.pdf .
- The licence allows the authors to put it on the Web.
- DOI and bibtex: see https://docs.abinit.org/theory/bibliography/#gonze2009
-
- [5] A brief introduction to the ABINIT software package.
- Z. Kristallogr. 220, 558-562 (2005).
- X. Gonze, G.-M. Rignanese, M. Verstraete, J.-M. Beuken, Y. Pouillon, R. Caracas, F. Jollet,
- M. Torrent, G. Zerah, M. Mikami, Ph. Ghosez, M. Veithen, J.-Y. Raty, V. Olevano, F. Bruneval,
- L. Reining, R. Godby, G. Onida, D.R. Hamann, and D.C. Allan.
- Comment: the second generic paper describing the ABINIT project. Note that this paper
- should be cited especially if you are using the GW part of ABINIT, as several authors
- of this part are not in the list of authors of the first or third paper.
- The .pdf of the latter paper is available at https://www.abinit.org/about/zfk_0505-06_558-562.pdf.
- Note that it should not redistributed (Copyright by Oldenburg Wissenshaftverlag,
- the licence allows the authors to put it on the Web).
- DOI and bibtex: see https://docs.abinit.org/theory/bibliography/#gonze2005
-
- Proc.   0 individual time (sec): cpu=         36.9  wall=         37.7

================================================================================

 Calculation completed.
.Delivered   1 WARNINGs and   1 COMMENTs to log file.
+Overall time at end (sec) : cpu=         36.9  wall=         37.7
