
.Version 8.4.1 of ABINIT 
.(MPI version, prepared for a x86_64_linux_gnu6.3 computer) 

.Copyright (C) 1998-2017 ABINIT group . 
 ABINIT comes with ABSOLUTELY NO WARRANTY.
 It is free software, and you are welcome to redistribute it
 under certain conditions (GNU General Public License,
 see ~abinit/COPYING or http://www.gnu.org/copyleft/gpl.txt).

 ABINIT is a project of the Universite Catholique de Louvain,
 Corning Inc. and other collaborators, see ~abinit/doc/developers/contributors.txt .
 Please read ~abinit/doc/users/acknowledgments.html for suggested
 acknowledgments of the ABINIT effort.
 For more information, see http://www.abinit.org .

.Starting date : Fri 11 Aug 2017.
- ( at 15h04 )
  
- input  file    -> tpositron_3.in
- output file    -> tpositron_3.out
- root for input  files -> tpositron_3i
- root for output files -> tpositron_3o


 Symmetries : space group F-4 3 m (#216); Bravais cF (face-center cubic)
================================================================================
 Values of the parameters that define the memory need of the present run
     intxc =       0    ionmov =       0      iscf =      17    lmnmax =       8
     lnmax =       4     mgfft =      40  mpssoang =       2    mqgrid =    3001
     natom =      15  nloc_mem =       2    nspden =       1   nspinor =       1
    nsppol =       1      nsym =      24    n1xccc =       1    ntypat =       1
    occopt =       1   xclevel =       1
-    mband =          36        mffmem =           1         mkmem =           3
       mpw =        1173          nfft =       64000          nkpt =           3
 PAW method is used; the additional fine FFT grid is defined by:
   mgfftf=        54    nfftf =    157464
================================================================================
P This job should need less than                      36.851 Mbytes of memory.
  Rough estimation (10% accuracy) of disk space for files :
_ WF disk file :      1.935 Mbytes ; DEN or POT disk file :      1.203 Mbytes.
================================================================================

--------------------------------------------------------------------------------
------------- Echo of variables that govern the present computation ------------
--------------------------------------------------------------------------------
-
- outvars: echo of selected default values                                      
-   iomode0 =  0 , fftalg0 =312 , wfoptalg0 = 10
-
- outvars: echo of global parameters not present in the input file              
-  max_nthreads =    1
-
 -outvars: echo values of preprocessed input variables --------
            acell      1.0261212902E+01  1.0261212902E+01  1.0261212902E+01 Bohr
              amu      2.80855000E+01
             ecut      8.00000000E+00 Hartree
-          fftalg         312
           istwfk        2    3    7
              ixc           7
              kpt      0.00000000E+00  0.00000000E+00  0.00000000E+00
                       5.00000000E-01  0.00000000E+00  0.00000000E+00
                       5.00000000E-01  5.00000000E-01  0.00000000E+00
         kptrlatt        2    0    0      0    2    0      0    0    2
          kptrlen      2.90230929E+01
P           mkmem           3
            natom          15
            nband          36
            ngfft          40      40      40
          ngfftdg          54      54      54
             nkpt           3
            nstep         500
             nsym          24
           ntypat           1
              occ      2.000000  2.000000  2.000000  2.000000  2.000000  2.000000
                       2.000000  2.000000  2.000000  2.000000  2.000000  2.000000
                       2.000000  2.000000  2.000000  2.000000  2.000000  2.000000
                       2.000000  2.000000  2.000000  2.000000  2.000000  2.000000
                       2.000000  2.000000  2.000000  2.000000  2.000000  2.000000
                       0.000000  0.000000  0.000000  0.000000  0.000000  0.000000
        optforces           0
        optstress           0
        pawecutdg      1.50000000E+01 Hartree
         positron         -10
         posnstep       20
        postoldfe      1.00000000E-05 Hartree
           prteig           0
            prtwf           0
            rprim      0.0000000000E+00  1.0000000000E+00  1.0000000000E+00
                       1.0000000000E+00  0.0000000000E+00  1.0000000000E+00
                       1.0000000000E+00  1.0000000000E+00  0.0000000000E+00
          spgroup         216
           symrel      1  0  0   0  1  0   0  0  1       0 -1  1   0 -1  0   1 -1  0
                      -1  0  0  -1  0  1  -1  1  0       0  1 -1   1  0 -1   0  0 -1
                      -1  0  0  -1  1  0  -1  0  1       0 -1  1   1 -1  0   0 -1  0
                       1  0  0   0  0  1   0  1  0       0  1 -1   0  0 -1   1  0 -1
                      -1  0  1  -1  1  0  -1  0  0       0 -1  0   1 -1  0   0 -1  1
                       1  0 -1   0  0 -1   0  1 -1       0  1  0   0  0  1   1  0  0
                       1  0 -1   0  1 -1   0  0 -1       0 -1  0   0 -1  1   1 -1  0
                      -1  0  1  -1  0  0  -1  1  0       0  1  0   1  0  0   0  0  1
                       0  0 -1   0  1 -1   1  0 -1       1 -1  0   0 -1  1   0 -1  0
                       0  0  1   1  0  0   0  1  0      -1  1  0  -1  0  0  -1  0  1
                       0  0  1   0  1  0   1  0  0       1 -1  0   0 -1  0   0 -1  1
                       0  0 -1   1  0 -1   0  1 -1      -1  1  0  -1  0  1  -1  0  0
            tnons      0.0000000  0.0000000  0.0000000     0.0000000  0.5000000  0.0000000
                       0.5000000  0.0000000  0.0000000     0.0000000  0.0000000  0.5000000
                       0.5000000  0.0000000  0.0000000     0.0000000  0.5000000  0.0000000
                       0.0000000  0.0000000  0.0000000     0.0000000  0.0000000  0.5000000
                       0.5000000  0.0000000  0.0000000     0.0000000  0.5000000  0.0000000
                       0.0000000  0.0000000  0.5000000     0.0000000  0.0000000  0.0000000
                       0.0000000  0.0000000  0.5000000     0.0000000  0.5000000  0.0000000
                       0.5000000  0.0000000  0.0000000     0.0000000  0.0000000  0.0000000
                       0.0000000  0.0000000  0.5000000     0.0000000  0.5000000  0.0000000
                       0.0000000  0.0000000  0.0000000     0.5000000  0.0000000  0.0000000
                       0.0000000  0.0000000  0.0000000     0.0000000  0.5000000  0.0000000
                       0.0000000  0.0000000  0.5000000     0.5000000  0.0000000  0.0000000
           toldfe      1.00000000E-08 Hartree
            typat      1  1  1  1  1  1  1  1  1  1  1  1  1  1  1
           useylm           1
              wtk        0.12500    0.50000    0.37500
           xangst      0.0000000000E+00  0.0000000000E+00  0.0000000000E+00
                       2.7150000000E+00  2.7150000000E+00  0.0000000000E+00
                       2.7150000000E+00  0.0000000000E+00  2.7150000000E+00
                       0.0000000000E+00  2.7150000000E+00  2.7150000000E+00
                       5.4300000000E+00  2.7150000000E+00  2.7150000000E+00
                       2.7150000000E+00  5.4300000000E+00  2.7150000000E+00
                       2.7150000000E+00  2.7150000000E+00  5.4300000000E+00
                       5.4300000000E+00  5.4300000000E+00  5.4300000000E+00
                       1.3575000000E+00  1.3575000000E+00  1.3575000000E+00
                       4.0725000000E+00  4.0725000000E+00  1.3575000000E+00
                       4.0725000000E+00  1.3575000000E+00  4.0725000000E+00
                       1.3575000000E+00  4.0725000000E+00  4.0725000000E+00
                       6.7875000000E+00  4.0725000000E+00  4.0725000000E+00
                       4.0725000000E+00  6.7875000000E+00  4.0725000000E+00
                       4.0725000000E+00  4.0725000000E+00  6.7875000000E+00
            xcart      0.0000000000E+00  0.0000000000E+00  0.0000000000E+00
                       5.1306064508E+00  5.1306064508E+00  0.0000000000E+00
                       5.1306064508E+00  0.0000000000E+00  5.1306064508E+00
                       0.0000000000E+00  5.1306064508E+00  5.1306064508E+00
                       1.0261212902E+01  5.1306064508E+00  5.1306064508E+00
                       5.1306064508E+00  1.0261212902E+01  5.1306064508E+00
                       5.1306064508E+00  5.1306064508E+00  1.0261212902E+01
                       1.0261212902E+01  1.0261212902E+01  1.0261212902E+01
                       2.5653032254E+00  2.5653032254E+00  2.5653032254E+00
                       7.6959096762E+00  7.6959096762E+00  2.5653032254E+00
                       7.6959096762E+00  2.5653032254E+00  7.6959096762E+00
                       2.5653032254E+00  7.6959096762E+00  7.6959096762E+00
                       1.2826516127E+01  7.6959096762E+00  7.6959096762E+00
                       7.6959096762E+00  1.2826516127E+01  7.6959096762E+00
                       7.6959096762E+00  7.6959096762E+00  1.2826516127E+01
             xred      0.0000000000E+00  0.0000000000E+00  0.0000000000E+00
                       0.0000000000E+00  0.0000000000E+00  5.0000000000E-01
                       0.0000000000E+00  5.0000000000E-01  0.0000000000E+00
                       5.0000000000E-01  0.0000000000E+00  0.0000000000E+00
                       0.0000000000E+00  5.0000000000E-01  5.0000000000E-01
                       5.0000000000E-01  0.0000000000E+00  5.0000000000E-01
                       5.0000000000E-01  5.0000000000E-01  0.0000000000E+00
                       5.0000000000E-01  5.0000000000E-01  5.0000000000E-01
                       1.2500000000E-01  1.2500000000E-01  1.2500000000E-01
                       1.2500000000E-01  1.2500000000E-01  6.2500000000E-01
                       1.2500000000E-01  6.2500000000E-01  1.2500000000E-01
                       6.2500000000E-01  1.2500000000E-01  1.2500000000E-01
                       1.2500000000E-01  6.2500000000E-01  6.2500000000E-01
                       6.2500000000E-01  1.2500000000E-01  6.2500000000E-01
                       6.2500000000E-01  6.2500000000E-01  1.2500000000E-01
            znucl       14.00000

================================================================================

 chkinp: Checking input parameters for consistency.

================================================================================
== DATASET  1 ==================================================================
-   nproc =    1

 Exchange-correlation functional for the present dataset will be:
  LDA: Perdew-Wang 92 LSD fit to Ceperley-Alder data - ixc=7
 Citation for XC functional:
  J.P.Perdew and Y.Wang, PRB 45, 13244 (1992)

 Real(R)+Recip(G) space primitive vectors, cartesian coordinates (Bohr,Bohr^-1):
 R(1)=  0.0000000 10.2612129 10.2612129  G(1)= -0.0487272  0.0487272  0.0487272
 R(2)= 10.2612129  0.0000000 10.2612129  G(2)=  0.0487272 -0.0487272  0.0487272
 R(3)= 10.2612129 10.2612129  0.0000000  G(3)=  0.0487272  0.0487272 -0.0487272
 Unit cell volume ucvol=  2.1608573E+03 bohr^3
 Angles (23,13,12)=  6.00000000E+01  6.00000000E+01  6.00000000E+01 degrees

 Coarse grid specifications (used for wave-functions):

 getcut: wavevector=  0.0000  0.0000  0.0000  ngfft=  40  40  40
         ecut(hartree)=      8.000   => boxcut(ratio)=   2.16489

 Fine grid specifications (used for densities):

 getcut: wavevector=  0.0000  0.0000  0.0000  ngfft=  54  54  54
         ecut(hartree)=     15.000   => boxcut(ratio)=   2.13510

--- Pseudopotential description ------------------------------------------------
- pspini: atom type   1  psp file is /cea/dsku/u-basque/hal1/home/abinit/abinit/REPOSITORY/TORRENT/ABINIT-GIT/tutopositron/tests/Psps_for_tests/Si.LDA-PW-paw.abinit
- pspatm: opening atomic psp file    /cea/dsku/u-basque/hal1/home/abinit/abinit/REPOSITORY/TORRENT/ABINIT-GIT/tutopositron/tests/Psps_for_tests/Si.LDA-PW-paw.abinit
- Paw atomic data for element Si - Generated with atompaw v3.1.0.3
- 14.00000   4.00000  20170718                znucl, zion, pspdat
    7    7    1    0      1390   0.00000      pspcod,pspxc,lmax,lloc,mmax,r2well
 Pseudopotential format is: paw5
 basis_size (lnmax)=  4 (lmn_size=  8), orbitals=   0   0   1   1
 Spheres core radius: rc_sph= 1.90944987
 5 radial meshes are used:
  - mesh 1: r(i)=AA*[exp(BB*(i-1))-1], size=1390 , AA= 0.43309E-03 BB= 0.60633E-02
  - mesh 2: r(i)=AA*[exp(BB*(i-1))-1], size=1385 , AA= 0.43309E-03 BB= 0.60633E-02
  - mesh 3: r(i)=AA*[exp(BB*(i-1))-1], size=1508 , AA= 0.43309E-03 BB= 0.60633E-02
  - mesh 4: r(i)=AA*[exp(BB*(i-1))-1], size=1658 , AA= 0.43309E-03 BB= 0.60633E-02
  - mesh 5: r(i)=AA*[exp(BB*(i-1))-1], size=1753 , AA= 0.43309E-03 BB= 0.60633E-02
 Shapefunction is BESSEL type: shapef(r,l)=aa(1,l)*jl(q(1,l)*r)+aa(2,l)*jl(q(2,l)*r)
 Radius for shape functions =  1.60149249
 Radial grid used for partial waves is grid 1
 Radial grid used for projectors is grid  2
 Radial grid used for (t)core density is grid 3
 Radial grid used for Vloc is grid 4
 Radial grid used for pseudo valence density is grid 5
 Compensation charge density is not taken into account in XC energy/potential
 pspatm: atomic psp has been read  and splines computed

   3.52816836E+03                                ecore*ucvol(ha*bohr**3)
--------------------------------------------------------------------------------

_setup2: Arith. and geom. avg. npw (full set) are    2330.375    2330.278

================================================================================

     iter   Etot(hartree)      deltaE(h)  residm     nres2
TC-DFT STEP   1 - ELECTRONIC GROUND-STATE CALCULATION
 ETOT  1  -60.084535021985    -6.008E+01 3.118E-02 6.550E+00
 ETOT  2  -60.161195766116    -7.666E-02 3.613E-03 1.120E+00
 ETOT  3  -60.146844787786     1.435E-02 6.598E-04 2.389E-02
 ETOT  4  -60.147017398609    -1.726E-04 1.246E-04 6.339E-03
 ETOT  5  -60.147023819019    -6.420E-06 7.298E-05 3.360E-04
 ETOT  6  -60.147017645441     6.174E-06 1.089E-04 5.438E-05
 ETOT  7  -60.147017718011    -7.257E-08 1.303E-04 2.218E-06
 ETOT  8  -60.147017755015    -3.700E-08 1.747E-04 7.919E-07
 ETOT  9  -60.147017747425     7.591E-09 1.147E-04 8.839E-08
 ETOT 10  -60.147017746140     1.284E-09 1.122E-04 9.719E-09

 At SCF step   10, etot is converged : 
  for the second time, diff in etot=  1.284E-09 < toldfe=  1.000E-08

TC-DFT STEP   2 - POSITRONIC GROUND-STATE CALCULATION IN PRESENCE OF ELECTRONS AND IONS
 ETOT 11  -60.528169537884    -3.812E-01 4.392E-01 1.517E-01
 ETOT 12  -60.563306918563    -3.514E-02 3.980E-02 4.628E-02
 ETOT 13  -60.564142442399    -8.355E-04 5.680E-02 2.410E-02
 ETOT 14  -60.564257012015    -1.146E-04 8.358E-03 5.172E-03
 ETOT 15  -60.564273947124    -1.694E-05 1.742E-02 5.944E-04
 ETOT 16  -60.564277385520    -3.438E-06 3.497E-03 9.797E-05
 ETOT 17  -60.564278039639    -6.541E-07 2.238E-03 1.635E-05
 ETOT 18  -60.564278163411    -1.238E-07 6.446E-04 2.867E-06
 ETOT 19  -60.564278188816    -2.540E-08 7.880E-04 4.733E-07
 ETOT 20  -60.564278194196    -5.381E-09 2.377E-04 2.053E-08
 ETOT 21  -60.564278195363    -1.167E-09 4.845E-04 6.013E-10

 At SCF step   21, etot is converged : 
  for the second time, diff in etot=  1.167E-09 < toldfe=  1.000E-08

TC-DFT STEP   3 - ELECTRONIC GROUND-STATE CALCULATION IN PRESENCE OF A POSITRON
 ETOT 22  -60.606121766800    -4.184E-02 1.220E-03 5.101E-01
 ETOT 23  -60.583193532811     2.293E-02 2.216E-04 4.611E-02
 ETOT 24  -60.580747939836     2.446E-03 1.822E-04 1.539E-02
 ETOT 25  -60.580309392851     4.385E-04 7.304E-06 6.920E-03
 ETOT 26  -60.579904100057     4.053E-04 2.133E-05 2.936E-04
 ETOT 27  -60.579902813701     1.286E-06 2.700E-06 8.462E-05
 ETOT 28  -60.579901652515     1.161E-06 4.767E-06 2.103E-05
 ETOT 29  -60.579901357830     2.947E-07 2.227E-06 1.831E-06
 ETOT 30  -60.579901343772     1.406E-08 3.534E-06 7.503E-08
 ETOT 31  -60.579901342527     1.245E-09 1.648E-06 1.396E-08
 ETOT 32  -60.579901342319     2.076E-10 2.718E-06 1.122E-09

 At SCF step   32, etot is converged : 
  for the second time, diff in etot=  2.076E-10 < toldfe=  1.000E-08

TC-DFT STEP   4 - POSITRONIC GROUND-STATE CALCULATION IN PRESENCE OF ELECTRONS AND IONS
 ETOT 33  -60.585119405689    -5.218E-03 1.746E-03 1.615E-02
 ETOT 34  -60.585129795853    -1.039E-05 8.525E-04 8.161E-03
 ETOT 35  -60.585129905399    -1.095E-07 7.659E-04 1.206E-03
 ETOT 36  -60.585129918474    -1.308E-08 7.440E-04 3.323E-04
 ETOT 37  -60.585129921089    -2.615E-09 9.393E-04 1.057E-04
 ETOT 38  -60.585129921814    -7.245E-10 6.053E-04 5.174E-06

 At SCF step   38, etot is converged : 
  for the second time, diff in etot=  7.245E-10 < toldfe=  1.000E-08

TC-DFT STEP   5 - ELECTRONIC GROUND-STATE CALCULATION IN PRESENCE OF A POSITRON
 ETOT 39  -60.588863328321    -3.733E-03 2.318E-04 4.986E-02
 ETOT 40  -60.586570459128     2.293E-03 2.624E-05 5.789E-03
 ETOT 41  -60.586240299740     3.302E-04 3.742E-05 1.634E-03
 ETOT 42  -60.586183763514     5.654E-05 1.672E-06 5.176E-04
 ETOT 43  -60.586151402465     3.236E-05 4.400E-06 1.861E-05
 ETOT 44  -60.586151298649     1.038E-07 1.846E-06 5.145E-06
 ETOT 45  -60.586151261737     3.691E-08 1.942E-07 1.177E-06
 ETOT 46  -60.586151236378     2.536E-08 1.165E-06 5.817E-08
 ETOT 47  -60.586151236170     2.081E-10 1.369E-07 5.890E-09
 ETOT 48  -60.586151236056     1.139E-10 8.379E-07 1.557E-09

 At SCF step   48, etot is converged : 
  for the second time, diff in etot=  1.139E-10 < toldfe=  1.000E-08

TC-DFT STEP   6 - POSITRONIC GROUND-STATE CALCULATION IN PRESENCE OF ELECTRONS AND IONS
 ETOT 49  -60.587711158411    -1.560E-03 8.386E-04 2.432E-03
 ETOT 50  -60.587717463548    -6.305E-06 7.756E-04 1.196E-03
 ETOT 51  -60.587717511098    -4.755E-08 5.908E-04 1.256E-04
 ETOT 52  -60.587717513928    -2.830E-09 4.978E-04 9.255E-05
 ETOT 53  -60.587717514295    -3.668E-10 3.496E-04 1.522E-05

 At SCF step   53, etot is converged : 
  for the second time, diff in etot=  3.668E-10 < toldfe=  1.000E-08

TC-DFT STEP   7 - ELECTRONIC GROUND-STATE CALCULATION IN PRESENCE OF A POSITRON
 ETOT 54  -60.584977305233     2.740E-03 2.942E-05 5.104E-03
 ETOT 55  -60.584743115232     2.342E-04 2.982E-06 7.017E-04
 ETOT 56  -60.584703193347     3.992E-05 3.821E-06 1.695E-04
 ETOT 57  -60.584697475838     5.718E-06 1.693E-07 4.570E-05
 ETOT 58  -60.584694643002     2.833E-06 4.103E-07 1.754E-06
 ETOT 59  -60.584694653914    -1.091E-08 5.557E-08 4.877E-07
 ETOT 60  -60.584694644165     9.749E-09 1.843E-07 5.234E-08
 ETOT 61  -60.584694642658     1.507E-09 4.032E-08 3.934E-09

 At SCF step   61, etot is converged : 
  for the second time, diff in etot=  1.507E-09 < toldfe=  1.000E-08

TC-DFT STEP   8 - POSITRONIC GROUND-STATE CALCULATION IN PRESENCE OF ELECTRONS AND IONS
 ETOT 62  -60.588037492514    -3.343E-03 3.934E-04 3.102E-04
 ETOT 63  -60.588038994824    -1.502E-06 2.188E-04 1.567E-04
 ETOT 64  -60.588039006732    -1.191E-08 2.658E-04 1.735E-05
 ETOT 65  -60.588039007481    -7.482E-10 1.593E-04 1.260E-05
 ETOT 66  -60.588039007604    -1.239E-10 2.267E-04 2.004E-06

 At SCF step   66, etot is converged : 
  for the second time, diff in etot=  1.239E-10 < toldfe=  1.000E-08

TC-DFT STEP   9 - ELECTRONIC GROUND-STATE CALCULATION IN PRESENCE OF A POSITRON
 ETOT 67  -60.587036456374     1.003E-03 3.766E-06 6.324E-04
 ETOT 68  -60.587007128301     2.933E-05 3.235E-07 9.133E-05
 ETOT 69  -60.587001872017     5.256E-06 5.097E-07 2.144E-05
 ETOT 70  -60.587001177416     6.946E-07 4.939E-08 6.208E-06
 ETOT 71  -60.587000790816     3.866E-07 7.261E-08 2.054E-07
 ETOT 72  -60.587000794951    -4.135E-09 3.849E-08 7.842E-08
 ETOT 73  -60.587000793140     1.811E-09 5.885E-08 6.301E-09

 At SCF step   73, etot is converged : 
  for the second time, diff in etot=  1.811E-09 < toldfe=  1.000E-08

TC-DFT STEP  10 - POSITRONIC GROUND-STATE CALCULATION IN PRESENCE OF ELECTRONS AND IONS
 ETOT 74  -60.588082810370    -1.082E-03 1.434E-04 3.883E-05
 ETOT 75  -60.588083028946    -2.186E-07 2.432E-04 1.981E-05
 ETOT 76  -60.588083030722    -1.777E-09 1.526E-04 2.271E-06
 ETOT 77  -60.588083030837    -1.147E-10 2.895E-04 1.596E-06

 At SCF step   77, etot is converged : 
  for the second time, diff in etot=  1.147E-10 < toldfe=  1.000E-08

TC-DFT STEP  11 - ELECTRONIC GROUND-STATE CALCULATION IN PRESENCE OF A POSITRON
 ETOT 78  -60.587286003754     7.970E-04 3.906E-07 6.405E-05
 ETOT 79  -60.587283060809     2.943E-06 4.840E-08 9.663E-06
 ETOT 80  -60.587282509738     5.511E-07 3.702E-08 2.153E-06
 ETOT 81  -60.587282441939     6.780E-08 3.715E-08 5.873E-07
 ETOT 82  -60.587282406005     3.593E-08 2.667E-08 1.944E-08
 ETOT 83  -60.587282406443    -4.380E-10 3.156E-08 7.373E-09
 ETOT 84  -60.587282406266     1.764E-10 2.285E-08 4.739E-10

 At SCF step   84, etot is converged : 
  for the second time, diff in etot=  1.764E-10 < toldfe=  1.000E-08

TC-DFT STEP  12 - POSITRONIC GROUND-STATE CALCULATION IN PRESENCE OF ELECTRONS AND IONS
 ETOT 85  -60.588084653528    -8.022E-04 3.271E-04 5.426E-06
 ETOT 86  -60.588084679811    -2.628E-08 3.593E-04 2.878E-06
 ETOT 87  -60.588084680029    -2.179E-10 9.541E-04 3.948E-07
 ETOT 88  -60.588084680046    -1.751E-11 7.033E-04 3.045E-07

 At SCF step   88, etot is converged : 
  for the second time, diff in etot=  1.751E-11 < toldfe=  1.000E-08

TC-DFT STEP  13 - ELECTRONIC GROUND-STATE CALCULATION IN PRESENCE OF A POSITRON
 ETOT 89  -60.587730034850     3.546E-04 7.235E-08 1.187E-05
 ETOT 90  -60.587729473546     5.613E-07 2.170E-08 1.677E-06
 ETOT 91  -60.587729375213     9.833E-08 2.104E-08 4.070E-07
 ETOT 92  -60.587729362417     1.280E-08 1.799E-08 1.381E-07
 ETOT 93  -60.587729353665     8.752E-09 1.904E-08 4.272E-09
 ETOT 94  -60.587729353775    -1.105E-10 1.560E-08 1.924E-09

 At SCF step   94, etot is converged : 
  for the second time, diff in etot=  1.105E-10 < toldfe=  1.000E-08

TC-DFT STEP  14 - POSITRONIC GROUND-STATE CALCULATION IN PRESENCE OF ELECTRONS AND IONS
 ETOT 95  -60.588086317468    -3.570E-04 2.328E-03 8.360E-07
 ETOT 96  -60.588086320882    -3.413E-09 1.338E-03 4.452E-07
 ETOT 97  -60.588086320910    -2.843E-11 3.890E-03 6.281E-08

 At SCF step   97, etot is converged : 
  for the second time, diff in etot=  2.843E-11 < toldfe=  1.000E-08

TC-DFT STEP  15 - ELECTRONIC GROUND-STATE CALCULATION IN PRESENCE OF A POSITRON
 ETOT 98  -60.588071653633     1.467E-05 1.510E-08 1.060E-06
 ETOT 99  -60.588071603749     4.988E-08 1.397E-08 1.673E-07
 ETOT  100  -60.588071594143     9.606E-09 1.385E-08 3.855E-08
 ETOT  101  -60.588071592911     1.232E-09 1.208E-08 1.088E-08

 At SCF step  101, etot is converged : 
  for the second time, diff in etot=  1.232E-09 < toldfe=  1.000E-08

TC-DFT STEP  16 - POSITRONIC GROUND-STATE CALCULATION IN PRESENCE OF ELECTRONS AND IONS
 ETOT  102  -60.588093108396    -2.152E-05 1.574E-03 1.625E-07
 ETOT  103  -60.588093108921    -5.251E-10 3.901E-03 9.976E-08
 ETOT  104  -60.588093108927    -5.670E-12 1.154E-03 1.378E-08

 At SCF step  104, etot is converged : 
  for the second time, diff in etot=  5.670E-12 < toldfe=  1.000E-08

TC-DFT STEP  17 - ELECTRONIC GROUND-STATE CALCULATION IN PRESENCE OF A POSITRON
 ETOT  105  -60.588074486099     1.862E-05 1.128E-08 4.587E-07
 ETOT  106  -60.588074463757     2.234E-08 1.074E-08 6.033E-08
 ETOT  107  -60.588074460128     3.629E-09 1.016E-08 1.594E-08
 ETOT  108  -60.588074459613     5.154E-10 9.316E-09 6.051E-09

 At SCF step  108, etot is converged : 
  for the second time, diff in etot=  5.154E-10 < toldfe=  1.000E-08

TC-DFT STEP  18 - POSITRONIC GROUND-STATE CALCULATION IN PRESENCE OF ELECTRONS AND IONS
 ETOT  109  -60.588090944525    -1.648E-05 2.521E-03 3.742E-08
 ETOT  110  -60.588090944599    -7.383E-11 2.522E-03 2.307E-08
 ETOT  111  -60.588090944600    -9.663E-13 1.246E-03 3.375E-09

 At SCF step  111, etot is converged : 
  for the second time, diff in etot=  9.663E-13 < toldfe=  1.000E-08

TC-DFT STEP  19 - ELECTRONIC GROUND-STATE CALCULATION IN PRESENCE OF A POSITRON
 ETOT  112  -60.588081980266     8.964E-06 8.580E-09 1.060E-07
 ETOT  113  -60.588081974956     5.309E-09 8.186E-09 1.412E-08
 ETOT  114  -60.588081974104     8.520E-10 7.602E-09 3.934E-09

 At SCF step  114, etot is converged : 
  for the second time, diff in etot=  8.520E-10 < toldfe=  1.000E-08

 At SCF step  114, the difference between
 etotal from electronic calculation and etotal from positronic calculation
 is converged :  diff(etot_el-etot_pos)=  8.970E-06 < postoldfe=  1.000E-05
 Integrated electronic density in atomic spheres:
 ------------------------------------------------
 Atom  Sphere_radius  Integrated_density
    1        1.90945          1.55031386
    2        1.90945          1.55031386
    3        1.90945          1.55031386
    4        1.90945          1.55031386
    5        1.90945          1.49809058
    6        1.90945          1.49809058
    7        1.90945          1.49809058
    8        1.90945          1.49809058
    9        1.90945          1.56043239
   10        1.90945          1.55651313
   11        1.90945          1.55651313
   12        1.90945          1.55651313
   13        1.90945          1.55651313
   14        1.90945          1.55651313
   15        1.90945          1.55651313

 PAW TEST:
 ==== Compensation charge inside spheres ============
 The following values must be close to each other ...
 Compensation charge over spherical meshes =     -1.554163385521027
 Compensation charge over fine fft grid    =     -1.554174670414635

 ==== Results concerning PAW augmentation regions ====

 Total pseudopotential strength Dij (hartree):
 -Note: these are the electronic Dij
 Atom #  1
   0.47227  73.72858  -0.00001  -0.00001  -0.00001   0.00018   0.00018   0.00018
  73.72858 *********  -0.00309  -0.00309  -0.00309   0.03434   0.03434   0.03434
  -0.00001  -0.00309   0.13262  -0.00000  -0.00000  -1.06911   0.00001   0.00001
  -0.00001  -0.00309  -0.00000   0.13262  -0.00000   0.00001  -1.06911   0.00001
  -0.00001  -0.00309  -0.00000  -0.00000   0.13262   0.00001   0.00001  -1.06911
   0.00018   0.03434  -1.06911   0.00001   0.00001   7.65633  -0.00013  -0.00013
   0.00018   0.03434   0.00001  -1.06911   0.00001  -0.00013   7.65633  -0.00013
   0.00018   0.03434   0.00001   0.00001  -1.06911  -0.00013  -0.00013   7.65633
 Atom # 15
   0.47262  73.81096   0.00000  -0.00005   0.00000   0.00000   0.00053   0.00000
  73.81096 *********   0.00000  -0.00922   0.00000   0.00000   0.09238   0.00000
   0.00000   0.00000   0.13264   0.00000   0.00000  -1.07002   0.00000  -0.00005
  -0.00005  -0.00922   0.00000   0.13264   0.00000   0.00000  -1.06998   0.00000
   0.00000   0.00000   0.00000   0.00000   0.13264  -0.00005   0.00000  -1.07002
   0.00000   0.00000  -1.07002   0.00000  -0.00005   7.66999   0.00000   0.00070
   0.00053   0.09238   0.00000  -1.06998   0.00000   0.00000   7.66937   0.00000
   0.00000   0.00000  -0.00005   0.00000  -1.07002   0.00070   0.00000   7.66999


 Augmentation waves occupancies Rhoij:
 -Note: these are the electronic Rhoij
 Atom #  1
   1.46280   0.00013   0.00209   0.00209   0.00209   0.00001   0.00001   0.00001
   0.00013   0.00000   0.00001   0.00001   0.00001   0.00000   0.00000   0.00000
   0.00209   0.00001   1.14587   0.00628   0.00628   0.00801  -0.00002  -0.00002
   0.00209   0.00001   0.00628   1.14587   0.00628  -0.00002   0.00801  -0.00002
   0.00209   0.00001   0.00628   0.00628   1.14587  -0.00002  -0.00002   0.00801
   0.00001   0.00000   0.00801  -0.00002  -0.00002   0.00007  -0.00000  -0.00000
   0.00001   0.00000  -0.00002   0.00801  -0.00002  -0.00000   0.00007  -0.00000
   0.00001   0.00000  -0.00002  -0.00002   0.00801  -0.00000  -0.00000   0.00007
 Atom # 15
   1.46534   0.00014   0.00000  -0.00587   0.00000   0.00000  -0.00002   0.00000
   0.00014   0.00000   0.00000  -0.00000   0.00000   0.00000   0.00000   0.00000
   0.00000   0.00000   1.11180   0.00000  -0.06659   0.00783   0.00000  -0.00010
  -0.00587  -0.00000   0.00000   1.18278   0.00000   0.00000   0.00803   0.00000
   0.00000   0.00000  -0.06659   0.00000   1.11180  -0.00010   0.00000   0.00783
   0.00000   0.00000   0.00783   0.00000  -0.00010   0.00007   0.00000   0.00000
  -0.00002   0.00000   0.00000   0.00803   0.00000   0.00000   0.00007   0.00000
   0.00000   0.00000  -0.00010   0.00000   0.00783   0.00000   0.00000   0.00007



--------------------------------------------------------------------------------
 Results for electron-positron annihilation:

2 computations of positron lifetime have been performed (with different enhancement factors).

########## Lifetime computation 1

 # Zero-positron density limit of Arponen and Pajanne provided by Boronski & Nieminen
   Ref.: Boronski and R.M. Nieminen, Phys. Rev. B 34, 3820 (1986)
 # Enhancement factor of Boronski & Nieminen
   Ref.: Boronski and R.M. Nieminen, Phys. Rev. B 34, 3820 (1986)

 Positron lifetime                         (ps)   =  2.96794922E+02
 Positron lifetime with IPM for core elec. (ps)   =  2.99078298E+02
 Annihilation rate                         (ns-1) =  3.36932989E+00
 Annihilation rate with IPM for core elec. (ns-1) =  3.34360603E+00

 Annihilation rate core/valence decomposition:
   Core    contribution to ann.rate          (ns-1) =  9.87611899E-02
   Valence contribution to ann.rate          (ns-1) =  3.27056870E+00
   Core    contribution to ann.rate with IPM (ns-1) =  6.93049217E-02
   Valence contribution to ann.rate with IPM (ns-1) =  3.27430111E+00

 Annihilation rate PAW decomposition:
   Plane-wave contribution to ann.rate          (ns-1) =  3.32752634E+00
   Plane-wave valence contribution to ann.rate  (ns-1) =  3.27351161E+00
   On-site core contribution to ann.rate        (ns-1) =  4.47464572E-02
   On-site valence contribution to ann.rate     (ns-1) = -2.94290718E-03
   Plane-wave contribution to ann.rate with IPM (ns-1) =  3.30409879E+00
   Plane-wave core contrb. to ann.rate with IPM (ns-1) =  2.50419168E-02

########## Lifetime computation 2

 # Zero-positron density limit of Arponen and Pajanne provided by Boronski & Nieminen
   Ref.: Boronski and R.M. Nieminen, Phys. Rev. B 34, 3820 (1986)
 # Enhancement factor of Boronski & Nieminen IN THE RPA LIMIT
   Ref.: Boronski and R.M. Nieminen, Phys. Rev. B 34, 3820 (1986)

 Positron lifetime                         (ps)   =  2.55617112E+02
 Positron lifetime with IPM for core elec. (ps)   =  2.57306912E+02
 Annihilation rate                         (ns-1) =  3.91210116E+00
 Annihilation rate with IPM for core elec. (ns-1) =  3.88640939E+00

 Annihilation rate core/valence decomposition:
   Core    contribution to ann.rate          (ns-1) =  9.87709366E-02
   Valence contribution to ann.rate          (ns-1) =  3.81333022E+00
   Core    contribution to ann.rate with IPM (ns-1) =  6.93049217E-02
   Valence contribution to ann.rate with IPM (ns-1) =  3.81710447E+00

 Annihilation rate PAW decomposition:
   Plane-wave contribution to ann.rate          (ns-1) =  3.87030168E+00
   Plane-wave valence contribution to ann.rate  (ns-1) =  3.81627309E+00
   On-site core contribution to ann.rate        (ns-1) =  4.47423474E-02
   On-site valence contribution to ann.rate     (ns-1) = -2.94286636E-03
   Plane-wave contribution to ann.rate with IPM (ns-1) =  3.84689910E+00
   Plane-wave core contrb. to ann.rate with IPM (ns-1) =  2.50419168E-02

      (*) IPM=Independent particle Model

================================================================================

 ----iterations are completed or convergence reached----

 Mean square residual over all n,k,spin=   7.4370E-11; max=  7.6016E-09
 reduced coordinates (array xred) for   15 atoms
       0.000000000000      0.000000000000      0.000000000000
       0.000000000000      0.000000000000      0.500000000000
       0.000000000000      0.500000000000      0.000000000000
       0.500000000000      0.000000000000      0.000000000000
       0.000000000000      0.500000000000      0.500000000000
       0.500000000000      0.000000000000      0.500000000000
       0.500000000000      0.500000000000      0.000000000000
       0.500000000000      0.500000000000      0.500000000000
       0.125000000000      0.125000000000      0.125000000000
       0.125000000000      0.125000000000      0.625000000000
       0.125000000000      0.625000000000      0.125000000000
       0.625000000000      0.125000000000      0.125000000000
       0.125000000000      0.625000000000      0.625000000000
       0.625000000000      0.125000000000      0.625000000000
       0.625000000000      0.625000000000      0.125000000000
 rms dE/dt=  0.0000E+00; max dE/dt=  0.0000E+00; dE/dt below (all hartree)
    1       0.000000000000      0.000000000000      0.000000000000
    2       0.000000000000      0.000000000000      0.000000000000
    3       0.000000000000      0.000000000000      0.000000000000
    4       0.000000000000      0.000000000000      0.000000000000
    5       0.000000000000      0.000000000000      0.000000000000
    6       0.000000000000      0.000000000000      0.000000000000
    7       0.000000000000      0.000000000000      0.000000000000
    8       0.000000000000      0.000000000000      0.000000000000
    9       0.000000000000      0.000000000000      0.000000000000
   10       0.000000000000      0.000000000000      0.000000000000
   11       0.000000000000      0.000000000000      0.000000000000
   12       0.000000000000      0.000000000000      0.000000000000
   13       0.000000000000      0.000000000000      0.000000000000
   14       0.000000000000      0.000000000000      0.000000000000
   15       0.000000000000      0.000000000000      0.000000000000

 cartesian coordinates (angstrom) at end:
    1      0.00000000000000     0.00000000000000     0.00000000000000
    2      2.71500000000000     2.71500000000000     0.00000000000000
    3      2.71500000000000     0.00000000000000     2.71500000000000
    4      0.00000000000000     2.71500000000000     2.71500000000000
    5      5.43000000000000     2.71500000000000     2.71500000000000
    6      2.71500000000000     5.43000000000000     2.71500000000000
    7      2.71500000000000     2.71500000000000     5.43000000000000
    8      5.43000000000000     5.43000000000000     5.43000000000000
    9      1.35750000000000     1.35750000000000     1.35750000000000
   10      4.07250000000000     4.07250000000000     1.35750000000000
   11      4.07250000000000     1.35750000000000     4.07250000000000
   12      1.35750000000000     4.07250000000000     4.07250000000000
   13      6.78750000000000     4.07250000000000     4.07250000000000
   14      4.07250000000000     6.78750000000000     4.07250000000000
   15      4.07250000000000     4.07250000000000     6.78750000000000
 length scales= 10.261212901569 10.261212901569 10.261212901569 bohr
              =  5.430000000000  5.430000000000  5.430000000000 angstroms
 Fermi (or HOMO) energy (hartree) =   0.20408   Average Vxc (hartree)=  -0.34927
 Eigenvalues (hartree) for nkpt=   3  k points:
 kpt#   1, nband= 36, wtk=  0.12500, kpt=  0.0000  0.0000  0.0000 (reduced coord)
  -0.25632   -0.17690   -0.17690   -0.17690   -0.15355   -0.11189   -0.11189   -0.10612
  -0.10612   -0.10612   -0.08519   -0.07282   -0.07282   -0.07282    0.01902    0.07037
   0.07037    0.07037    0.08832    0.08832    0.08832    0.13181    0.13181    0.13181
   0.13250    0.13250    0.16213    0.16213    0.16213    0.20408    0.20408    0.20408
   0.20561    0.20561    0.20995    0.21946
 prteigrs : prtvol=0 or 1, do not print more k-points.


--------------------------------------------------------------------------------
 Components of total free energy (in Hartree) :

    Kinetic energy  =  2.21961162343659E+01
    Hartree energy  =  4.81571531104323E+00
    XC energy       = -3.55798950207622E+01
    Ewald energy    = -6.05835621191802E+01
    PspCore energy  =  1.63276322547784E+00
    Loc. psp. energy= -2.02030454139892E+01
    Spherical terms =  2.76102964151639E+01
    >>> Electronic E= -6.01116113678807E+01

    Positronic ener.= -6.29044981089911E-01
    EP interaction E=  1.52550808483039E-01
    >>>>>>>>> Etotal= -6.05881055404875E+01

 "Double-counting" decomposition of free energy:
    Band energy     = -4.76498707398461E-01
    Ewald energy    = -6.05835621191802E+01
    PspCore energy  =  1.63276322547784E+00
    Dble-C XC-energy= -1.47468940422635E+01
    Spherical terms =  1.44621517969659E+01
    - EP dble-ct En.= -3.99547955099083E-01
    >>> Electronic E= -6.01115878014974E+01

    Positronic ener.= -6.29044981089911E-01
    EP interaction E=  1.52550808483039E-01
    >>>> Etotal (DC)= -6.05880819741043E+01

  >Total energy in eV           = -1.64868619721240E+03
  >Total DC energy in eV        = -1.64868555593850E+03
--------------------------------------------------------------------------------

== END DATASET(S) ==============================================================
================================================================================
  
 -outvars: echo values of variables after computation  --------
            acell      1.0261212902E+01  1.0261212902E+01  1.0261212902E+01 Bohr
              amu      2.80855000E+01
             ecut      8.00000000E+00 Hartree
           etotal     -6.0588081974E+01
            fcart      9.9999999999E+99  9.9999999999E+99  9.9999999999E+99
                       9.9999999999E+99  9.9999999999E+99  9.9999999999E+99
                       9.9999999999E+99  9.9999999999E+99  9.9999999999E+99
                       9.9999999999E+99  9.9999999999E+99  9.9999999999E+99
                       9.9999999999E+99  9.9999999999E+99  9.9999999999E+99
                       9.9999999999E+99  9.9999999999E+99  9.9999999999E+99
                       9.9999999999E+99  9.9999999999E+99  9.9999999999E+99
                       9.9999999999E+99  9.9999999999E+99  9.9999999999E+99
                       9.9999999999E+99  9.9999999999E+99  9.9999999999E+99
                       9.9999999999E+99  9.9999999999E+99  9.9999999999E+99
                       9.9999999999E+99  9.9999999999E+99  9.9999999999E+99
                       9.9999999999E+99  9.9999999999E+99  9.9999999999E+99
                       9.9999999999E+99  9.9999999999E+99  9.9999999999E+99
                       9.9999999999E+99  9.9999999999E+99  9.9999999999E+99
                       9.9999999999E+99  9.9999999999E+99  9.9999999999E+99
-          fftalg         312
           istwfk        2    3    7
              ixc           7
              kpt      0.00000000E+00  0.00000000E+00  0.00000000E+00
                       5.00000000E-01  0.00000000E+00  0.00000000E+00
                       5.00000000E-01  5.00000000E-01  0.00000000E+00
         kptrlatt        2    0    0      0    2    0      0    0    2
          kptrlen      2.90230929E+01
P           mkmem           3
            natom          15
            nband          36
            ngfft          40      40      40
          ngfftdg          54      54      54
             nkpt           3
            nstep         500
             nsym          24
           ntypat           1
              occ      2.000000  2.000000  2.000000  2.000000  2.000000  2.000000
                       2.000000  2.000000  2.000000  2.000000  2.000000  2.000000
                       2.000000  2.000000  2.000000  2.000000  2.000000  2.000000
                       2.000000  2.000000  2.000000  2.000000  2.000000  2.000000
                       2.000000  2.000000  2.000000  2.000000  2.000000  2.000000
                       0.000000  0.000000  0.000000  0.000000  0.000000  0.000000
        optforces           0
        optstress           0
        pawecutdg      1.50000000E+01 Hartree
         positron         -10
         posnstep       20
        postoldfe      1.00000000E-05 Hartree
           prteig           0
            prtwf           0
            rprim      0.0000000000E+00  1.0000000000E+00  1.0000000000E+00
                       1.0000000000E+00  0.0000000000E+00  1.0000000000E+00
                       1.0000000000E+00  1.0000000000E+00  0.0000000000E+00
          spgroup         216
           strten      9.9999999999E+99  9.9999999999E+99  9.9999999999E+99
                       9.9999999999E+99  9.9999999999E+99  9.9999999999E+99
           symrel      1  0  0   0  1  0   0  0  1       0 -1  1   0 -1  0   1 -1  0
                      -1  0  0  -1  0  1  -1  1  0       0  1 -1   1  0 -1   0  0 -1
                      -1  0  0  -1  1  0  -1  0  1       0 -1  1   1 -1  0   0 -1  0
                       1  0  0   0  0  1   0  1  0       0  1 -1   0  0 -1   1  0 -1
                      -1  0  1  -1  1  0  -1  0  0       0 -1  0   1 -1  0   0 -1  1
                       1  0 -1   0  0 -1   0  1 -1       0  1  0   0  0  1   1  0  0
                       1  0 -1   0  1 -1   0  0 -1       0 -1  0   0 -1  1   1 -1  0
                      -1  0  1  -1  0  0  -1  1  0       0  1  0   1  0  0   0  0  1
                       0  0 -1   0  1 -1   1  0 -1       1 -1  0   0 -1  1   0 -1  0
                       0  0  1   1  0  0   0  1  0      -1  1  0  -1  0  0  -1  0  1
                       0  0  1   0  1  0   1  0  0       1 -1  0   0 -1  0   0 -1  1
                       0  0 -1   1  0 -1   0  1 -1      -1  1  0  -1  0  1  -1  0  0
            tnons      0.0000000  0.0000000  0.0000000     0.0000000  0.5000000  0.0000000
                       0.5000000  0.0000000  0.0000000     0.0000000  0.0000000  0.5000000
                       0.5000000  0.0000000  0.0000000     0.0000000  0.5000000  0.0000000
                       0.0000000  0.0000000  0.0000000     0.0000000  0.0000000  0.5000000
                       0.5000000  0.0000000  0.0000000     0.0000000  0.5000000  0.0000000
                       0.0000000  0.0000000  0.5000000     0.0000000  0.0000000  0.0000000
                       0.0000000  0.0000000  0.5000000     0.0000000  0.5000000  0.0000000
                       0.5000000  0.0000000  0.0000000     0.0000000  0.0000000  0.0000000
                       0.0000000  0.0000000  0.5000000     0.0000000  0.5000000  0.0000000
                       0.0000000  0.0000000  0.0000000     0.5000000  0.0000000  0.0000000
                       0.0000000  0.0000000  0.0000000     0.0000000  0.5000000  0.0000000
                       0.0000000  0.0000000  0.5000000     0.5000000  0.0000000  0.0000000
           toldfe      1.00000000E-08 Hartree
            typat      1  1  1  1  1  1  1  1  1  1  1  1  1  1  1
           useylm           1
              wtk        0.12500    0.50000    0.37500
           xangst      0.0000000000E+00  0.0000000000E+00  0.0000000000E+00
                       2.7150000000E+00  2.7150000000E+00  0.0000000000E+00
                       2.7150000000E+00  0.0000000000E+00  2.7150000000E+00
                       0.0000000000E+00  2.7150000000E+00  2.7150000000E+00
                       5.4300000000E+00  2.7150000000E+00  2.7150000000E+00
                       2.7150000000E+00  5.4300000000E+00  2.7150000000E+00
                       2.7150000000E+00  2.7150000000E+00  5.4300000000E+00
                       5.4300000000E+00  5.4300000000E+00  5.4300000000E+00
                       1.3575000000E+00  1.3575000000E+00  1.3575000000E+00
                       4.0725000000E+00  4.0725000000E+00  1.3575000000E+00
                       4.0725000000E+00  1.3575000000E+00  4.0725000000E+00
                       1.3575000000E+00  4.0725000000E+00  4.0725000000E+00
                       6.7875000000E+00  4.0725000000E+00  4.0725000000E+00
                       4.0725000000E+00  6.7875000000E+00  4.0725000000E+00
                       4.0725000000E+00  4.0725000000E+00  6.7875000000E+00
            xcart      0.0000000000E+00  0.0000000000E+00  0.0000000000E+00
                       5.1306064508E+00  5.1306064508E+00  0.0000000000E+00
                       5.1306064508E+00  0.0000000000E+00  5.1306064508E+00
                       0.0000000000E+00  5.1306064508E+00  5.1306064508E+00
                       1.0261212902E+01  5.1306064508E+00  5.1306064508E+00
                       5.1306064508E+00  1.0261212902E+01  5.1306064508E+00
                       5.1306064508E+00  5.1306064508E+00  1.0261212902E+01
                       1.0261212902E+01  1.0261212902E+01  1.0261212902E+01
                       2.5653032254E+00  2.5653032254E+00  2.5653032254E+00
                       7.6959096762E+00  7.6959096762E+00  2.5653032254E+00
                       7.6959096762E+00  2.5653032254E+00  7.6959096762E+00
                       2.5653032254E+00  7.6959096762E+00  7.6959096762E+00
                       1.2826516127E+01  7.6959096762E+00  7.6959096762E+00
                       7.6959096762E+00  1.2826516127E+01  7.6959096762E+00
                       7.6959096762E+00  7.6959096762E+00  1.2826516127E+01
             xred      0.0000000000E+00  0.0000000000E+00  0.0000000000E+00
                       0.0000000000E+00  0.0000000000E+00  5.0000000000E-01
                       0.0000000000E+00  5.0000000000E-01  0.0000000000E+00
                       5.0000000000E-01  0.0000000000E+00  0.0000000000E+00
                       0.0000000000E+00  5.0000000000E-01  5.0000000000E-01
                       5.0000000000E-01  0.0000000000E+00  5.0000000000E-01
                       5.0000000000E-01  5.0000000000E-01  0.0000000000E+00
                       5.0000000000E-01  5.0000000000E-01  5.0000000000E-01
                       1.2500000000E-01  1.2500000000E-01  1.2500000000E-01
                       1.2500000000E-01  1.2500000000E-01  6.2500000000E-01
                       1.2500000000E-01  6.2500000000E-01  1.2500000000E-01
                       6.2500000000E-01  1.2500000000E-01  1.2500000000E-01
                       1.2500000000E-01  6.2500000000E-01  6.2500000000E-01
                       6.2500000000E-01  1.2500000000E-01  6.2500000000E-01
                       6.2500000000E-01  6.2500000000E-01  1.2500000000E-01
            znucl       14.00000

================================================================================


- Timing analysis has been suppressed with timopt=0



================================================================================

 Suggested references for the acknowledgment of ABINIT usage.

 The users of ABINIT have little formal obligations with respect to the ABINIT group
 (those specified in the GNU General Public License, http://www.gnu.org/copyleft/gpl.txt).
 However, it is common practice in the scientific literature,
 to acknowledge the efforts of people that have made the research possible.
 In this spirit, please find below suggested citations of work written by ABINIT developers,
 corresponding to implementations inside of ABINIT that you have used in the present run.
 Note also that it will be of great value to readers of publications presenting these results,
 to read papers enabling them to understand the theoretical formalism and details
 of the ABINIT implementation.
 For information on why they are suggested, see also http://www.abinit.org/about/?text=acknowledgments.
-
- [1] Two-component density functional theory within the projector augmented-wave approach:
- Accurate and self-consistent computations of positron lifetimes and momentum distributions
- J. Wiktor, G. Jomard and M. Torrent, Phys. Rev. B 92, 125113 (2015).
- Comment : to be cited in case the computation of electron-positron annihilation properties within the 2-component DFT, i.e. positron/=0.
- Strong suggestion to cite this paper.
-
- [2] Implementation of the Projector Augmented-Wave Method in the ABINIT code.
- M. Torrent, F. Jollet, F. Bottin, G. Zerah, and X. Gonze Comput. Mat. Science 42, 337, (2008).
- Comment : PAW calculations. Strong suggestion to cite this paper.
-
- [3] Recent developments in the ABINIT software package.
- Computer Phys. Comm. 205, 106 (2016).
- X.Gonze, F.Jollet, F.Abreu Araujo, D.Adams, B.Amadon, T.Applencourt,
- C.Audouze, J.-M.Beuken, J.Bieder, A.Bokhanchuk, E.Bousquet, F.Bruneval
- D.Caliste, M.Cote, F.Dahm, F.Da Pieve, M.Delaveau, M.Di Gennaro,
- B.Dorado, C.Espejo, G.Geneste, L.Genovese, A.Gerossier, M.Giantomassi,
- Y.Gillet, D.R.Hamann, L.He, G.Jomard, J.Laflamme Janssen, S.Le Roux,
- A.Levitt, A.Lherbier, F.Liu, I.Lukacevic, A.Martin, C.Martins,
- M.J.T.Oliveira, S.Ponce, Y.Pouillon, T.Rangel, G.-M.Rignanese,
- A.H.Romero, B.Rousseau, O.Rubel, A.A.Shukri, M.Stankovski, M.Torrent,
- M.J.Van Setten, B.Van Troeye, M.J.Verstraete, D.Waroquier, J.Wiktor,
- B.Xue, A.Zhou, J.W.Zwanziger.
- Comment : the fourth generic paper describing the ABINIT project.
- Note that a version of this paper, that is not formatted for Computer Phys. Comm. 
- is available at http://www.abinit.org/about/ABINIT16.pdf .
- The licence allows the authors to put it on the Web.
-
- [4] ABINIT : First-principles approach of materials and nanosystem properties.
- Computer Phys. Comm. 180, 2582-2615 (2009).
- X. Gonze, B. Amadon, P.-M. Anglade, J.-M. Beuken, F. Bottin, P. Boulanger, F. Bruneval,
- D. Caliste, R. Caracas, M. Cote, T. Deutsch, L. Genovese, Ph. Ghosez, M. Giantomassi
- S. Goedecker, D.R. Hamann, P. Hermet, F. Jollet, G. Jomard, S. Leroux, M. Mancini, S. Mazevet,
- M.J.T. Oliveira, G. Onida, Y. Pouillon, T. Rangel, G.-M. Rignanese, D. Sangalli, R. Shaltaf,
- M. Torrent, M.J. Verstraete, G. Zerah, J.W. Zwanziger
- Comment : the third generic paper describing the ABINIT project.
- Note that a version of this paper, that is not formatted for Computer Phys. Comm. 
- is available at http://www.abinit.org/about/ABINIT_CPC_v10.pdf .
- The licence allows the authors to put it on the Web.
-
- [5] A brief introduction to the ABINIT software package.
- Z. Kristallogr. 220, 558-562 (2005).
- X. Gonze, G.-M. Rignanese, M. Verstraete, J.-M. Beuken, Y. Pouillon, R. Caracas, F. Jollet,
- M. Torrent, G. Zerah, M. Mikami, Ph. Ghosez, M. Veithen, J.-Y. Raty, V. Olevano, F. Bruneval,
- L. Reining, R. Godby, G. Onida, D.R. Hamann, and D.C. Allan.
- Comment : the second generic paper describing the ABINIT project. Note that this paper
- should be cited especially if you are using the GW part of ABINIT, as several authors
- of this part are not in the list of authors of the first or third paper.
- The .pdf of the latter paper is available at http://www.abinit.org/about/zfk_0505-06_558-562.pdf.
- Note that it should not redistributed (Copyright by Oldenburg Wissenshaftverlag,
- the licence allows the authors to put it on the Web).
-
- Proc.   0 individual time (sec): cpu=         91.9  wall=         92.0

================================================================================

 Calculation completed.
.Delivered 228 WARNINGs and  19 COMMENTs to log file.
+Overall time at end (sec) : cpu=         91.9  wall=         92.0
