
.Version 10.6.4.5 of ABINIT, released Dec 2025.
.(MPI version, prepared for a x86_64_linux_gnu13.2 computer) 

.Copyright (C) 1998-2026 ABINIT group . 
 ABINIT comes with ABSOLUTELY NO WARRANTY.
 It is free software, and you are welcome to redistribute it
 under certain conditions (GNU General Public License,
 see ~abinit/COPYING or http://www.gnu.org/copyleft/gpl.txt).

 ABINIT is a project of the Universite Catholique de Louvain,
 Corning Inc. and other collaborators, see ~abinit/doc/developers/contributors.txt .
 Please read https://docs.abinit.org/theory/acknowledgments for suggested
 acknowledgments of the ABINIT effort.
 For more information, see https://www.abinit.org .

.Starting date : Wed  4 Mar 2026.
- ( at 12h40 )
  
- input  file    -> /home/buildbot/ABINIT3/eos_gnu_13.2_mpich/baguetl_fix-nhat-fft/tests/TestBot_MPI1/tutorial_tpositron_4/tpositron_4.abi
- output file    -> tpositron_4.abo
- root for input  files -> tpositron_4i
- root for output files -> tpositron_4o

- inpspheads : Reading pseudopotential header in XML form from 
-   /home/buildbot/ABINIT3/eos_gnu_13.2_mpich/baguetl_fix-nhat-fft/tests/Pspdir/Psdj_paw_pw_std/Si.xml
 Symmetries : space group F-4 3 m (#216); Bravais cF (face-center cubic)
================================================================================
 Values of the parameters that define the memory need of the present run
     intxc =       0    ionmov =       2      iscf =      17    lmnmax =       8
     lnmax =       4     mgfft =      40  mpssoang =       2    mqgrid =    3001
     natom =      15  nloc_mem =       2    nspden =       1   nspinor =       1
    nsppol =       1      nsym =      24    n1xccc =       1    ntypat =       1
    occopt =       1   xclevel =       1
-    mband =          36        mffmem =           1         mkmem =           3
       mpw =        1173          nfft =       64000          nkpt =           3
 PAW method is used; the additional fine FFT grid is defined by:
   mgfftf=        54    nfftf =    157464
================================================================================
P This job should need less than                      40.535 Mbytes of memory.
  Rough estimation (10% accuracy) of disk space for files :
_ WF disk file :      1.935 Mbytes ; DEN or POT disk file :      1.203 Mbytes.
================================================================================

--------------------------------------------------------------------------------
------------- Echo of variables that govern the present computation ------------
--------------------------------------------------------------------------------
-
- outvars: echo of selected default values
-   iomode0 =  0 , fftalg0 =512 , wfoptalg0 = 10
-
- outvars: echo of global parameters not present in the input file
-  max_nthreads =    0
-
 -outvars: echo values of preprocessed input variables --------
            acell      1.0261212864E+01  1.0261212864E+01  1.0261212864E+01 Bohr
              amu      2.80855000E+01
          chkprim           0
             ecut      8.00000000E+00 Hartree
-          fftalg         512
           ionmov           2
           istwfk        2    3    7
              ixc       -1012
              kpt      0.00000000E+00  0.00000000E+00  0.00000000E+00
                       5.00000000E-01  0.00000000E+00  0.00000000E+00
                       5.00000000E-01  5.00000000E-01  0.00000000E+00
         kptrlatt        2    0    0      0    2    0      0    0    2
          kptrlen      2.90230928E+01
P           mkmem           3
            natom          15
            nband          36
            ngfft          40      40      40
          ngfftdg          54      54      54
             nkpt           3
            nstep         500
             nsym          24
            ntime           4
           ntypat           1
              occ      2.000000  2.000000  2.000000  2.000000  2.000000  2.000000
                       2.000000  2.000000  2.000000  2.000000  2.000000  2.000000
                       2.000000  2.000000  2.000000  2.000000  2.000000  2.000000
                       2.000000  2.000000  2.000000  2.000000  2.000000  2.000000
                       2.000000  2.000000  2.000000  2.000000  2.000000  2.000000
                       0.000000  0.000000  0.000000  0.000000  0.000000  0.000000
        optforces           1
        optstress           0
        pawecutdg      1.50000000E+01 Hartree
         positron         -10
         posnstep       20
        postoldfe      1.00000000E-05 Hartree
           prtden           0
           prteig           0
            prtwf           0
            rprim      0.0000000000E+00  1.0000000000E+00  1.0000000000E+00
                       1.0000000000E+00  0.0000000000E+00  1.0000000000E+00
                       1.0000000000E+00  1.0000000000E+00  0.0000000000E+00
          spgroup         216
           symrel      1  0  0   0  1  0   0  0  1       0 -1  1   0 -1  0   1 -1  0
                      -1  0  0  -1  0  1  -1  1  0       0  1 -1   1  0 -1   0  0 -1
                      -1  0  0  -1  1  0  -1  0  1       0 -1  1   1 -1  0   0 -1  0
                       1  0  0   0  0  1   0  1  0       0  1 -1   0  0 -1   1  0 -1
                      -1  0  1  -1  1  0  -1  0  0       0 -1  0   1 -1  0   0 -1  1
                       1  0 -1   0  0 -1   0  1 -1       0  1  0   0  0  1   1  0  0
                       1  0 -1   0  1 -1   0  0 -1       0 -1  0   0 -1  1   1 -1  0
                      -1  0  1  -1  0  0  -1  1  0       0  1  0   1  0  0   0  0  1
                       0  0 -1   0  1 -1   1  0 -1       1 -1  0   0 -1  1   0 -1  0
                       0  0  1   1  0  0   0  1  0      -1  1  0  -1  0  0  -1  0  1
                       0  0  1   0  1  0   1  0  0       1 -1  0   0 -1  0   0 -1  1
                       0  0 -1   1  0 -1   0  1 -1      -1  1  0  -1  0  1  -1  0  0
            tnons      0.0000000  0.0000000  0.0000000     0.0000000  0.5000000 -0.0000000
                       0.5000000  0.0000000 -0.0000000    -0.0000000  0.0000000  0.5000000
                       0.5000000  0.0000000 -0.0000000     0.0000000  0.5000000 -0.0000000
                       0.0000000  0.0000000  0.0000000    -0.0000000  0.0000000  0.5000000
                       0.5000000  0.0000000 -0.0000000     0.0000000  0.5000000 -0.0000000
                      -0.0000000  0.0000000  0.5000000     0.0000000  0.0000000  0.0000000
                      -0.0000000  0.0000000  0.5000000     0.0000000  0.5000000 -0.0000000
                       0.5000000  0.0000000 -0.0000000     0.0000000  0.0000000  0.0000000
                      -0.0000000  0.0000000  0.5000000     0.0000000  0.5000000 -0.0000000
                       0.0000000  0.0000000  0.0000000     0.5000000  0.0000000 -0.0000000
                       0.0000000  0.0000000  0.0000000     0.0000000  0.5000000 -0.0000000
                      -0.0000000  0.0000000  0.5000000     0.5000000  0.0000000 -0.0000000
           toldfe      1.00000000E-08 Hartree
            typat      1  1  1  1  1  1  1  1  1  1  1  1  1  1  1
           useylm           1
              wtk        0.12500    0.50000    0.37500
           xangst      0.0000000000E+00  0.0000000000E+00  0.0000000000E+00
                       2.7150000000E+00  2.7150000000E+00  1.6074063631E-33
                       2.7150000000E+00  1.6074063631E-33  2.7150000000E+00
                       1.6074063631E-33  2.7150000000E+00  2.7150000000E+00
                       5.4300000000E+00  2.7150000000E+00  2.7150000000E+00
                       2.7150000000E+00  5.4300000000E+00  2.7150000000E+00
                       2.7150000000E+00  2.7150000000E+00  5.4300000000E+00
                       5.4300000000E+00  5.4300000000E+00  5.4300000000E+00
                       1.3575000000E+00  1.3575000000E+00  1.3575000000E+00
                       4.0725000000E+00  4.0725000000E+00  1.3575000000E+00
                       4.0725000000E+00  1.3575000000E+00  4.0725000000E+00
                       1.3575000000E+00  4.0725000000E+00  4.0725000000E+00
                       6.7875000000E+00  4.0725000000E+00  4.0725000000E+00
                       4.0725000000E+00  6.7875000000E+00  4.0725000000E+00
                       4.0725000000E+00  4.0725000000E+00  6.7875000000E+00
            xcart      0.0000000000E+00  0.0000000000E+00  0.0000000000E+00
                       5.1306064318E+00  5.1306064318E+00  3.0375577992E-33
                       5.1306064318E+00  3.0375577992E-33  5.1306064318E+00
                       3.0375577992E-33  5.1306064318E+00  5.1306064318E+00
                       1.0261212864E+01  5.1306064318E+00  5.1306064318E+00
                       5.1306064318E+00  1.0261212864E+01  5.1306064318E+00
                       5.1306064318E+00  5.1306064318E+00  1.0261212864E+01
                       1.0261212864E+01  1.0261212864E+01  1.0261212864E+01
                       2.5653032159E+00  2.5653032159E+00  2.5653032159E+00
                       7.6959096478E+00  7.6959096478E+00  2.5653032159E+00
                       7.6959096478E+00  2.5653032159E+00  7.6959096478E+00
                       2.5653032159E+00  7.6959096478E+00  7.6959096478E+00
                       1.2826516080E+01  7.6959096478E+00  7.6959096478E+00
                       7.6959096478E+00  1.2826516080E+01  7.6959096478E+00
                       7.6959096478E+00  7.6959096478E+00  1.2826516080E+01
             xred      0.0000000000E+00  0.0000000000E+00  0.0000000000E+00
                      -1.2220227437E-17  1.2220227437E-17  5.0000000000E-01
                       1.2220227437E-17  5.0000000000E-01 -1.2220227437E-17
                       5.0000000000E-01  1.2220227437E-17 -1.2220227437E-17
                       1.2220227437E-17  5.0000000000E-01  5.0000000000E-01
                       5.0000000000E-01  1.2220227437E-17  5.0000000000E-01
                       5.0000000000E-01  5.0000000000E-01 -2.4440454875E-17
                       5.0000000000E-01  5.0000000000E-01  5.0000000000E-01
                       1.2500000000E-01  1.2500000000E-01  1.2500000000E-01
                       1.2500000000E-01  1.2500000000E-01  6.2500000000E-01
                       1.2500000000E-01  6.2500000000E-01  1.2500000000E-01
                       6.2500000000E-01  1.2500000000E-01  1.2500000000E-01
                       1.2500000000E-01  6.2500000000E-01  6.2500000000E-01
                       6.2500000000E-01  1.2500000000E-01  6.2500000000E-01
                       6.2500000000E-01  6.2500000000E-01  1.2500000000E-01
            znucl       14.00000

================================================================================

 chkinp: Checking input parameters for consistency.

================================================================================
== DATASET  1 ==================================================================
-   mpi_nproc: 1, omp_nthreads: -1 (-1 if OMP is not activated)


--- !DatasetInfo
iteration_state: {dtset: 1, }
dimensions: {natom: 15, nkpt: 3, mband: 36, nsppol: 1, nspinor: 1, nspden: 1, mpw: 1173, }
cutoff_energies: {ecut:   8.0, pawecutdg:  15.0, }
electrons: {nelect:   6.00000000E+01, charge:   0.00000000E+00, occopt:   1.00000000E+00, tsmear:   1.00000000E-02, }
meta: {optdriver: 0, ionmov: 2, optcell: 0, iscf: 17, paral_kgb: 0, }
...

 Real(R)+Recip(G) space primitive vectors, cartesian coordinates (Bohr,Bohr^-1):
 R(1)=  0.0000000 10.2612129 10.2612129  G(1)= -0.0487272  0.0487272  0.0487272
 R(2)= 10.2612129  0.0000000 10.2612129  G(2)=  0.0487272 -0.0487272  0.0487272
 R(3)= 10.2612129 10.2612129  0.0000000  G(3)=  0.0487272  0.0487272 -0.0487272
 Unit cell volume ucvol=  2.1608573E+03 bohr^3
 Angles (23,13,12)=  6.00000000E+01  6.00000000E+01  6.00000000E+01 degrees

 Coarse grid specifications (used for wave-functions):

 getcut: wavevector=  0.0000  0.0000  0.0000  ngfft=  40  40  40
         ecut(hartree)=      8.000   => boxcut(ratio)=   2.16489

 Fine grid specifications (used for densities):

 getcut: wavevector=  0.0000  0.0000  0.0000  ngfft=  54  54  54
         ecut(hartree)=     15.000   => boxcut(ratio)=   2.13510

--- Pseudopotential description ------------------------------------------------
- pspini: atom type   1  psp file is /home/buildbot/ABINIT3/eos_gnu_13.2_mpich/baguetl_fix-nhat-fft/tests/Pspdir/Psdj_paw_pw_std/Si.xml
- pspatm: opening atomic psp file    /home/buildbot/ABINIT3/eos_gnu_13.2_mpich/baguetl_fix-nhat-fft/tests/Pspdir/Psdj_paw_pw_std/Si.xml
- pspatm : Reading pseudopotential header in XML form from /home/buildbot/ABINIT3/eos_gnu_13.2_mpich/baguetl_fix-nhat-fft/tests/Pspdir/Psdj_paw_pw_std/Si.xml
 Pseudopotential format is: paw10
 basis_size (lnmax)=  4 (lmn_size=  8), orbitals=   0   0   1   1
 Spheres core radius: rc_sph= 1.90944987
 1 radial meshes are used:
  - mesh 1: r(i)=AA*[exp(BB*(i-1))-1], size=2001 , AA= 0.43309E-03 BB= 0.60633E-02
 Shapefunction is BESSEL type: shapef(r,l)=aa(1,l)*jl(q(1,l)*r)+aa(2,l)*jl(q(2,l)*r)
 Radius for shape functions =  1.60149249
 mmax= 2001
 Radial grid used for partial waves is grid 1
 Radial grid used for projectors is grid 1
 Radial grid used for (t)core density is grid 1
 Radial grid used for Vloc is grid 1
 Radial grid used for pseudo valence density is grid 1
 Mesh size for Vloc has been set to 1772 to avoid numerical noise.
 Compensation charge density is not taken into account in XC energy/potential
 pspatm: atomic psp has been read  and splines computed

   3.52801429E+03                                ecore*ucvol(ha*bohr**3)
--------------------------------------------------------------------------------

_setup2: Arith. and geom. avg. npw (full set) are    2330.375    2330.278

================================================================================

=== [ionmov= 2] Broyden-Fletcher-Goldfarb-Shanno method (forces)
================================================================================

--- Iteration: (1/4) Internal Cycle: (1/1)
--------------------------------------------------------------------------------

---SELF-CONSISTENT-FIELD CONVERGENCE--------------------------------------------

--- !BeginCycle
iteration_state: {dtset: 1, itime: 1, icycle: 1, }
solver: {iscf: 17, nstep: 500, nline: 4, wfoptalg: 10, }
tolerances: {toldfe: 1.00E-08, }
...

     iter   Etot(hartree)      deltaE(h)  residm     nres2    diffor    maxfor
TC-DFT STEP   1 - ELECTRONIC GROUND-STATE CALCULATION
 ETOT  1  -60.084602009915    -6.008E+01 3.126E-02 6.552E+00 1.642E-03 1.642E-03
 ETOT  2  -60.161408198518    -7.681E-02 3.611E-03 1.120E+00 5.958E-03 4.316E-03
 ETOT  3  -60.147057388441     1.435E-02 6.789E-04 2.389E-02 2.679E-03 2.353E-03
 ETOT  4  -60.147230856758    -1.735E-04 1.241E-04 6.340E-03 1.029E-03 3.382E-03
 ETOT  5  -60.147237299657    -6.443E-06 7.216E-05 3.352E-04 8.776E-04 3.412E-03
 ETOT  6  -60.147231152696     6.147E-06 1.095E-04 5.428E-05 1.288E-04 3.309E-03
 ETOT  7  -60.147231228219    -7.552E-08 1.290E-04 2.212E-06 6.462E-05 3.363E-03
 ETOT  8  -60.147231265461    -3.724E-08 1.759E-04 7.896E-07 1.632E-05 3.374E-03
 ETOT  9  -60.147231257924     7.536E-09 1.133E-04 8.810E-08 4.297E-06 3.370E-03
 ETOT 10  -60.147231256649     1.275E-09 1.127E-04 9.697E-09 2.360E-06 3.371E-03

 At SCF step   10, etot is converged : 
  for the second time, diff in etot=  1.275E-09 < toldfe=  1.000E-08

TC-DFT STEP   2 - POSITRONIC GROUND-STATE CALCULATION IN PRESENCE OF ELECTRONS AND IONS
 ETOT 11  -60.528421160148    -3.812E-01 4.379E-01 1.517E-01 5.496E-02 5.608E-02
 ETOT 12  -60.563529323682    -3.511E-02 3.982E-02 4.628E-02 4.448E-03 5.163E-02
 ETOT 13  -60.564365722508    -8.364E-04 5.684E-02 2.410E-02 6.248E-04 5.101E-02
 ETOT 14  -60.564481055558    -1.153E-04 8.332E-03 5.172E-03 1.377E-04 5.115E-02
 ETOT 15  -60.564498211359    -1.716E-05 1.769E-02 5.953E-04 5.088E-05 5.110E-02
 ETOT 16  -60.564501697204    -3.486E-06 3.699E-03 9.801E-05 2.920E-05 5.113E-02
 ETOT 17  -60.564502362083    -6.649E-07 2.242E-03 1.636E-05 6.855E-06 5.112E-02
 ETOT 18  -60.564502489374    -1.273E-07 6.457E-04 2.872E-06 5.551E-06 5.112E-02
 ETOT 19  -60.564502515413    -2.604E-08 7.836E-04 4.746E-07 1.424E-06 5.112E-02
 ETOT 20  -60.564502520721    -5.309E-09 2.382E-04 2.055E-08 1.093E-06 5.112E-02
 ETOT 21  -60.564502522041    -1.320E-09 4.817E-04 6.068E-10 3.736E-07 5.112E-02

 At SCF step   21, etot is converged : 
  for the second time, diff in etot=  1.320E-09 < toldfe=  1.000E-08

TC-DFT STEP   3 - ELECTRONIC GROUND-STATE CALCULATION IN PRESENCE OF A POSITRON
 ETOT 22  -60.606339211009    -4.184E-02 1.221E-03 5.099E-01 4.230E-02 9.342E-02
 ETOT 23  -60.583416769915     2.292E-02 2.213E-04 4.610E-02 4.897E-02 4.445E-02
 ETOT 24  -60.580970108384     2.447E-03 1.822E-04 1.538E-02 1.655E-02 2.790E-02
 ETOT 25  -60.580531210984     4.389E-04 7.282E-06 6.917E-03 6.646E-03 2.125E-02
 ETOT 26  -60.580126039401     4.052E-04 2.134E-05 2.936E-04 9.476E-03 1.178E-02
 ETOT 27  -60.580124749515     1.290E-06 2.674E-06 8.453E-05 8.543E-04 1.092E-02
 ETOT 28  -60.580123602908     1.147E-06 4.728E-06 2.107E-05 7.004E-04 1.022E-02
 ETOT 29  -60.580123307950     2.950E-07 2.201E-06 1.833E-06 2.182E-04 1.000E-02
 ETOT 30  -60.580123293901     1.405E-08 3.504E-06 7.512E-08 1.717E-05 9.994E-03
 ETOT 31  -60.580123292668     1.233E-09 1.626E-06 1.391E-08 8.904E-06 9.985E-03
 ETOT 32  -60.580123292461     2.072E-10 2.693E-06 1.122E-09 4.338E-06 9.981E-03

 At SCF step   32, etot is converged : 
  for the second time, diff in etot=  2.072E-10 < toldfe=  1.000E-08

TC-DFT STEP   4 - POSITRONIC GROUND-STATE CALCULATION IN PRESENCE OF ELECTRONS AND IONS
 ETOT 33  -60.585340819457    -5.218E-03 1.746E-03 1.615E-02 1.460E-02 2.458E-02
 ETOT 34  -60.585351207034    -1.039E-05 8.562E-04 8.161E-03 1.421E-04 2.444E-02
 ETOT 35  -60.585351316659    -1.096E-07 7.672E-04 1.206E-03 4.946E-06 2.444E-02
 ETOT 36  -60.585351329789    -1.313E-08 6.991E-04 3.323E-04 2.891E-06 2.444E-02
 ETOT 37  -60.585351332420    -2.630E-09 9.456E-04 1.057E-04 7.166E-07 2.444E-02
 ETOT 38  -60.585351333148    -7.282E-10 7.640E-04 5.173E-06 3.700E-07 2.444E-02

 At SCF step   38, etot is converged : 
  for the second time, diff in etot=  7.282E-10 < toldfe=  1.000E-08

TC-DFT STEP   5 - ELECTRONIC GROUND-STATE CALCULATION IN PRESENCE OF A POSITRON
 ETOT 39  -60.589084762058    -3.733E-03 2.319E-04 4.986E-02 1.586E-02 4.030E-02
 ETOT 40  -60.586791956741     2.293E-03 2.627E-05 5.788E-03 1.482E-02 2.549E-02
 ETOT 41  -60.586461767649     3.302E-04 3.741E-05 1.634E-03 6.266E-03 1.922E-02
 ETOT 42  -60.586405210780     5.656E-05 1.685E-06 5.179E-04 2.933E-03 1.629E-02
 ETOT 43  -60.586372844678     3.237E-05 4.402E-06 1.864E-05 3.176E-03 1.311E-02
 ETOT 44  -60.586372738263     1.064E-07 1.833E-06 5.150E-06 4.649E-04 1.265E-02
 ETOT 45  -60.586372701658     3.660E-08 1.912E-07 1.175E-06 1.481E-04 1.250E-02
 ETOT 46  -60.586372676540     2.512E-08 1.150E-06 5.843E-08 7.840E-05 1.242E-02
 ETOT 47  -60.586372676337     2.030E-10 1.341E-07 5.860E-09 4.512E-06 1.242E-02
 ETOT 48  -60.586372676222     1.148E-10 8.252E-07 1.542E-09 3.151E-06 1.242E-02

 At SCF step   48, etot is converged : 
  for the second time, diff in etot=  1.148E-10 < toldfe=  1.000E-08

TC-DFT STEP   6 - POSITRONIC GROUND-STATE CALCULATION IN PRESENCE OF ELECTRONS AND IONS
 ETOT 49  -60.587932511852    -1.560E-03 1.011E-03 2.432E-03 4.348E-03 1.677E-02
 ETOT 50  -60.587938815240    -6.303E-06 8.555E-04 1.196E-03 4.463E-05 1.672E-02
 ETOT 51  -60.587938862453    -4.721E-08 6.300E-04 1.256E-04 1.607E-06 1.672E-02
 ETOT 52  -60.587938865417    -2.964E-09 6.564E-04 9.255E-05 8.709E-07 1.672E-02
 ETOT 53  -60.587938865907    -4.901E-10 4.537E-04 1.522E-05 1.496E-07 1.672E-02

 At SCF step   53, etot is converged : 
  for the second time, diff in etot=  4.901E-10 < toldfe=  1.000E-08

TC-DFT STEP   7 - ELECTRONIC GROUND-STATE CALCULATION IN PRESENCE OF A POSITRON
 ETOT 54  -60.585198401936     2.740E-03 2.945E-05 5.105E-03 5.353E-03 2.208E-02
 ETOT 55  -60.584964188998     2.342E-04 2.985E-06 7.018E-04 4.444E-03 1.763E-02
 ETOT 56  -60.584924259456     3.993E-05 3.823E-06 1.695E-04 2.228E-03 1.540E-02
 ETOT 57  -60.584918541650     5.718E-06 1.698E-07 4.571E-05 1.032E-03 1.437E-02
 ETOT 58  -60.584915708131     2.834E-06 4.107E-07 1.756E-06 9.994E-04 1.337E-02
 ETOT 59  -60.584915718844    -1.071E-08 5.523E-08 4.864E-07 1.341E-04 1.324E-02
 ETOT 60  -60.584915709175     9.669E-09 1.781E-07 5.229E-08 6.024E-05 1.318E-02
 ETOT 61  -60.584915707672     1.503E-09 4.049E-08 3.941E-09 2.158E-05 1.316E-02

 At SCF step   61, etot is converged : 
  for the second time, diff in etot=  1.503E-09 < toldfe=  1.000E-08

TC-DFT STEP   8 - POSITRONIC GROUND-STATE CALCULATION IN PRESENCE OF ELECTRONS AND IONS
 ETOT 62  -60.588258840964    -3.343E-03 5.845E-04 3.102E-04 1.411E-03 1.457E-02
 ETOT 63  -60.588260343134    -1.502E-06 3.137E-04 1.567E-04 1.704E-05 1.455E-02
 ETOT 64  -60.588260355049    -1.191E-08 4.183E-04 1.735E-05 5.983E-07 1.455E-02
 ETOT 65  -60.588260355802    -7.528E-10 2.280E-04 1.260E-05 3.398E-07 1.455E-02
 ETOT 66  -60.588260355927    -1.250E-10 3.198E-04 2.004E-06 6.453E-08 1.455E-02

 At SCF step   66, etot is converged : 
  for the second time, diff in etot=  1.250E-10 < toldfe=  1.000E-08

TC-DFT STEP   9 - ELECTRONIC GROUND-STATE CALCULATION IN PRESENCE OF A POSITRON
 ETOT 67  -60.587257577742     1.003E-03 3.770E-06 6.324E-04 1.837E-03 1.639E-02
 ETOT 68  -60.587228245825     2.933E-05 3.238E-07 9.135E-05 1.490E-03 1.490E-02
 ETOT 69  -60.587222988291     5.258E-06 5.099E-07 2.145E-05 7.849E-04 1.411E-02
 ETOT 70  -60.587222293556     6.947E-07 4.902E-08 6.210E-06 3.489E-04 1.376E-02
 ETOT 71  -60.587221906905     3.867E-07 7.267E-08 2.057E-07 3.779E-04 1.339E-02
 ETOT 72  -60.587221911016    -4.111E-09 3.822E-08 7.824E-08 3.671E-05 1.335E-02
 ETOT 73  -60.587221909215     1.801E-09 5.897E-08 6.297E-09 2.639E-05 1.332E-02

 At SCF step   73, etot is converged : 
  for the second time, diff in etot=  1.801E-09 < toldfe=  1.000E-08

TC-DFT STEP  10 - POSITRONIC GROUND-STATE CALCULATION IN PRESENCE OF ELECTRONS AND IONS
 ETOT 74  -60.588304177375    -1.082E-03 5.302E-04 3.883E-05 4.886E-04 1.381E-02
 ETOT 75  -60.588304395956    -2.186E-07 2.797E-04 1.982E-05 6.176E-06 1.381E-02
 ETOT 76  -60.588304397734    -1.778E-09 1.854E-03 2.271E-06 2.142E-07 1.381E-02
 ETOT 77  -60.588304397850    -1.155E-10 4.525E-04 1.596E-06 1.266E-07 1.381E-02

 At SCF step   77, etot is converged : 
  for the second time, diff in etot=  1.155E-10 < toldfe=  1.000E-08

TC-DFT STEP  11 - ELECTRONIC GROUND-STATE CALCULATION IN PRESENCE OF A POSITRON
 ETOT 78  -60.587507301857     7.971E-04 3.910E-07 6.405E-05 5.971E-04 1.440E-02
 ETOT 79  -60.587504358611     2.943E-06 4.841E-08 9.666E-06 4.783E-04 1.392E-02
 ETOT 80  -60.587503807266     5.513E-07 3.704E-08 2.153E-06 2.634E-04 1.366E-02
 ETOT 81  -60.587503739574     6.769E-08 3.727E-08 5.876E-07 1.138E-04 1.355E-02
 ETOT 82  -60.587503703609     3.596E-08 2.659E-08 1.947E-08 1.179E-04 1.343E-02
 ETOT 83  -60.587503704048    -4.383E-10 3.168E-08 7.349E-09 1.091E-05 1.342E-02
 ETOT 84  -60.587503703871     1.763E-10 2.276E-08 4.734E-10 8.440E-06 1.341E-02

 At SCF step   84, etot is converged : 
  for the second time, diff in etot=  1.763E-10 < toldfe=  1.000E-08

TC-DFT STEP  12 - POSITRONIC GROUND-STATE CALCULATION IN PRESENCE OF ELECTRONS AND IONS
 ETOT 85  -60.588306020922    -8.023E-04 4.407E-03 5.427E-06 1.590E-04 1.357E-02
 ETOT 86  -60.588306047208    -2.629E-08 7.666E-04 2.879E-06 2.159E-06 1.357E-02
 ETOT 87  -60.588306047426    -2.181E-10 4.941E-03 3.949E-07 7.715E-08 1.357E-02
 ETOT 88  -60.588306047444    -1.765E-11 6.012E-04 3.045E-07 4.927E-08 1.357E-02

 At SCF step   88, etot is converged : 
  for the second time, diff in etot=  1.765E-11 < toldfe=  1.000E-08

TC-DFT STEP  13 - ELECTRONIC GROUND-STATE CALCULATION IN PRESENCE OF A POSITRON
 ETOT 89  -60.587951338009     3.547E-04 7.243E-08 1.187E-05 2.293E-04 1.380E-02
 ETOT 90  -60.587950776547     5.615E-07 2.166E-08 1.678E-06 1.916E-04 1.360E-02
 ETOT 91  -60.587950678176     9.837E-08 2.109E-08 4.071E-07 1.000E-04 1.350E-02
 ETOT 92  -60.587950665376     1.280E-08 1.792E-08 1.381E-07 4.318E-05 1.346E-02
 ETOT 93  -60.587950656621     8.755E-09 1.909E-08 4.278E-09 5.643E-05 1.340E-02
 ETOT 94  -60.587950656730    -1.093E-10 1.554E-08 1.921E-09 4.108E-06 1.340E-02

 At SCF step   94, etot is converged : 
  for the second time, diff in etot=  1.093E-10 < toldfe=  1.000E-08

TC-DFT STEP  14 - POSITRONIC GROUND-STATE CALCULATION IN PRESENCE OF ELECTRONS AND IONS
 ETOT 95  -60.588307681500    -3.570E-04 2.838E-03 8.362E-07 6.332E-05 1.346E-02
 ETOT 96  -60.588307684914    -3.414E-09 4.866E-04 4.453E-07 7.479E-07 1.346E-02
 ETOT 97  -60.588307684943    -2.847E-11 1.132E-03 6.282E-08 2.717E-08 1.346E-02

 At SCF step   97, etot is converged : 
  for the second time, diff in etot=  2.847E-11 < toldfe=  1.000E-08

TC-DFT STEP  15 - ELECTRONIC GROUND-STATE CALCULATION IN PRESENCE OF A POSITRON
 ETOT 98  -60.588293016466     1.467E-05 1.518E-08 1.061E-06 7.550E-05 1.354E-02
 ETOT 99  -60.588292966569     4.990E-08 1.393E-08 1.673E-07 6.234E-05 1.348E-02
 ETOT  100  -60.588292956958     9.611E-09 1.389E-08 3.857E-08 3.439E-05 1.344E-02
 ETOT  101  -60.588292955727     1.231E-09 1.203E-08 1.088E-08 1.501E-05 1.343E-02

 At SCF step  101, etot is converged : 
  for the second time, diff in etot=  1.231E-09 < toldfe=  1.000E-08

TC-DFT STEP  16 - POSITRONIC GROUND-STATE CALCULATION IN PRESENCE OF ELECTRONS AND IONS
 ETOT  102  -60.588314474600    -2.152E-05 5.572E-04 1.625E-07 2.046E-05 1.345E-02
 ETOT  103  -60.588314475125    -5.252E-10 3.945E-04 9.978E-08 3.107E-07 1.345E-02
 ETOT  104  -60.588314475131    -5.713E-12 5.938E-04 1.378E-08 1.111E-08 1.345E-02

 At SCF step  104, etot is converged : 
  for the second time, diff in etot=  5.713E-12 < toldfe=  1.000E-08

TC-DFT STEP  17 - ELECTRONIC GROUND-STATE CALCULATION IN PRESENCE OF A POSITRON
 ETOT  105  -60.588295855978     1.862E-05 1.134E-08 4.588E-07 2.147E-05 1.347E-02
 ETOT  106  -60.588295833630     2.235E-08 1.071E-08 6.035E-08 3.472E-05 1.343E-02
 ETOT  107  -60.588295830000     3.630E-09 1.019E-08 1.595E-08 1.764E-05 1.342E-02
 ETOT  108  -60.588295829486     5.143E-10 9.284E-09 6.052E-09 7.759E-06 1.341E-02

 At SCF step  108, etot is converged : 
  for the second time, diff in etot=  5.143E-10 < toldfe=  1.000E-08

TC-DFT STEP  18 - POSITRONIC GROUND-STATE CALCULATION IN PRESENCE OF ELECTRONS AND IONS
 ETOT  109  -60.588312311666    -1.648E-05 3.647E-04 3.743E-08 1.129E-05 1.342E-02
 ETOT  110  -60.588312311740    -7.385E-11 5.840E-04 2.308E-08 1.053E-07 1.342E-02
 ETOT  111  -60.588312311741    -1.002E-12 3.500E-04 3.376E-09 3.958E-09 1.342E-02

 At SCF step  111, etot is converged : 
  for the second time, diff in etot=  1.002E-12 < toldfe=  1.000E-08

TC-DFT STEP  19 - ELECTRONIC GROUND-STATE CALCULATION IN PRESENCE OF A POSITRON
 ETOT  112  -60.588303347231     8.965E-06 8.614E-09 1.060E-07 5.950E-06 1.343E-02
 ETOT  113  -60.588303341922     5.309E-09 8.162E-09 1.413E-08 1.637E-05 1.341E-02
 ETOT  114  -60.588303341068     8.535E-10 7.623E-09 3.936E-09 8.221E-06 1.340E-02

 At SCF step  114, etot is converged : 
  for the second time, diff in etot=  8.535E-10 < toldfe=  1.000E-08

 At SCF step  114, the difference between
 etotal from electronic calculation and etotal from positronic calculation
 is converged :  diff(etot_el-etot_pos)=  8.971E-06 < postoldfe=  1.000E-05

--- !ResultsGS
iteration_state: {dtset: 1, itime: 1, icycle: 1, }
comment   : Summary of ground state results
lattice_vectors:
- [  0.0000000,  10.2612129,  10.2612129, ]
- [ 10.2612129,   0.0000000,  10.2612129, ]
- [ 10.2612129,  10.2612129,   0.0000000, ]
lattice_lengths: [  14.51155,   14.51155,   14.51155, ]
lattice_angles: [ 60.000,  60.000,  60.000, ] # degrees, (23, 13, 12)
lattice_volume:   2.1608573E+03
convergence: {deltae:  8.535E-10, res2:  3.936E-09, residm:  7.623E-09, diffor:  8.221E-06, }
etotal    :  -6.05883033E+01
entropy   :   0.00000000E+00
fermie    :   2.04075001E-01
cartesian_stress_tensor: null
pressure_GPa: null
xred      :
- [  0.0000E+00,   0.0000E+00,   0.0000E+00, Si]
- [ -1.2220E-17,   1.2220E-17,   5.0000E-01, Si]
- [  1.2220E-17,   5.0000E-01,  -1.2220E-17, Si]
- [  5.0000E-01,   1.2220E-17,  -1.2220E-17, Si]
- [  1.2220E-17,   5.0000E-01,   5.0000E-01, Si]
- [  5.0000E-01,   1.2220E-17,   5.0000E-01, Si]
- [  5.0000E-01,   5.0000E-01,  -2.4440E-17, Si]
- [  5.0000E-01,   5.0000E-01,   5.0000E-01, Si]
- [  1.2500E-01,   1.2500E-01,   1.2500E-01, Si]
- [  1.2500E-01,   1.2500E-01,   6.2500E-01, Si]
- [  1.2500E-01,   6.2500E-01,   1.2500E-01, Si]
- [  6.2500E-01,   1.2500E-01,   1.2500E-01, Si]
- [  1.2500E-01,   6.2500E-01,   6.2500E-01, Si]
- [  6.2500E-01,   1.2500E-01,   6.2500E-01, Si]
- [  6.2500E-01,   6.2500E-01,   1.2500E-01, Si]
cartesian_forces: # hartree/bohr
- [  2.39080502E-03,   2.39080502E-03,   2.39080502E-03, ]
- [ -2.39080502E-03,  -2.39080502E-03,   2.39080502E-03, ]
- [ -2.39080502E-03,   2.39080502E-03,  -2.39080502E-03, ]
- [  2.39080502E-03,  -2.39080502E-03,  -2.39080502E-03, ]
- [ -1.34011652E-02,   1.34011652E-02,   1.34011652E-02, ]
- [  1.34011652E-02,  -1.34011652E-02,   1.34011652E-02, ]
- [  1.34011652E-02,   1.34011652E-02,  -1.34011652E-02, ]
- [ -1.34011652E-02,  -1.34011652E-02,  -1.34011652E-02, ]
- [  4.62592927E-19,  -7.01884248E-19,  -0.00000000E+00, ]
- [  1.28691736E-18,  -1.46985655E-18,  -7.43077040E-03, ]
- [  3.42670067E-19,  -7.43077040E-03,   1.19922860E-19, ]
- [ -7.43077040E-03,  -8.21807108E-19,   1.19922860E-19, ]
- [  7.43077040E-03,  -5.81961388E-19,  -1.19922860E-19, ]
- [  5.82515787E-19,   7.43077040E-03,  -1.19922860E-19, ]
- [  1.21003180E-18,  -1.44932313E-18,   7.43077040E-03, ]
force_length_stats: {min:   8.40615080E-19, max:   2.32114989E-02, mean:   1.02663068E-02, }
...

 Integrated electronic density in atomic spheres:
 ------------------------------------------------
 Atom  Sphere_radius  Integrated_density
    1        1.90945          1.55028707
    2        1.90945          1.55028707
    3        1.90945          1.55028707
    4        1.90945          1.55028707
    5        1.90945          1.49806632
    6        1.90945          1.49806632
    7        1.90945          1.49806632
    8        1.90945          1.49806632
    9        1.90945          1.56040637
   10        1.90945          1.55648770
   11        1.90945          1.55648770
   12        1.90945          1.55648770
   13        1.90945          1.55648770
   14        1.90945          1.55648770
   15        1.90945          1.55648770

 PAW TEST:
 ==== Compensation charge inside spheres ============
 The following values must be close to each other ...
 Compensation charge over spherical meshes =     -1.548357229696576
 Compensation charge over fine fft grid    =     -1.548368473727844

 ==== Results concerning PAW augmentation regions ====

 Total pseudopotential strength Dij (hartree):
 -Note: these are the electronic Dij
 Atom #  1
   0.47226  73.73251  -0.00001  -0.00001  -0.00001   0.00018   0.00018   0.00018
  73.73251 *********  -0.00309  -0.00309  -0.00309   0.03434   0.03434   0.03434
  -0.00001  -0.00309   0.13261  -0.00000  -0.00000  -1.06934   0.00001   0.00001
  -0.00001  -0.00309  -0.00000   0.13261  -0.00000   0.00001  -1.06934   0.00001
  -0.00001  -0.00309  -0.00000  -0.00000   0.13261   0.00001   0.00001  -1.06934
   0.00018   0.03434  -1.06934   0.00001   0.00001   7.65604  -0.00013  -0.00013
   0.00018   0.03434   0.00001  -1.06934   0.00001  -0.00013   7.65604  -0.00013
   0.00018   0.03434   0.00001   0.00001  -1.06934  -0.00013  -0.00013   7.65604
 Atom # 15
   0.47261  73.81489   0.00000  -0.00005   0.00000   0.00000   0.00053   0.00000
  73.81489 *********   0.00000  -0.00921   0.00000   0.00000   0.09237   0.00000
   0.00000   0.00000   0.13264   0.00000   0.00000  -1.07025   0.00000  -0.00005
  -0.00005  -0.00921   0.00000   0.13264   0.00000   0.00000  -1.07020   0.00000
   0.00000   0.00000   0.00000   0.00000   0.13264  -0.00005   0.00000  -1.07025
   0.00000   0.00000  -1.07025   0.00000  -0.00005   7.66970   0.00000   0.00070
   0.00053   0.09237   0.00000  -1.07020   0.00000   0.00000   7.66909   0.00000
   0.00000   0.00000  -0.00005   0.00000  -1.07025   0.00070   0.00000   7.66970


 Augmentation waves occupancies Rhoij:
 -Note: these are the electronic Rhoij
 Atom #  1
   1.46823   0.00011   0.00210   0.00210   0.00210   0.00001   0.00001   0.00001
   0.00011   0.00000   0.00001   0.00001   0.00001   0.00000   0.00000   0.00000
   0.00210   0.00001   1.14612   0.00628   0.00628   0.00805  -0.00001  -0.00001
   0.00210   0.00001   0.00628   1.14612   0.00628  -0.00001   0.00805  -0.00001
   0.00210   0.00001   0.00628   0.00628   1.14612  -0.00001  -0.00001   0.00805
   0.00001   0.00000   0.00805  -0.00001  -0.00001   0.00007  -0.00000  -0.00000
   0.00001   0.00000  -0.00001   0.00805  -0.00001  -0.00000   0.00007  -0.00000
   0.00001   0.00000  -0.00001  -0.00001   0.00805  -0.00000  -0.00000   0.00007
 Atom # 15
   1.47078   0.00012   0.00000  -0.00588   0.00000   0.00000  -0.00002   0.00000
   0.00012   0.00000   0.00000  -0.00000   0.00000   0.00000   0.00000   0.00000
   0.00000   0.00000   1.11205   0.00000  -0.06660   0.00787   0.00000  -0.00010
  -0.00588  -0.00000   0.00000   1.18304   0.00000   0.00000   0.00806   0.00000
   0.00000   0.00000  -0.06660   0.00000   1.11205  -0.00010   0.00000   0.00787
   0.00000   0.00000   0.00787   0.00000  -0.00010   0.00007   0.00000   0.00000
  -0.00002   0.00000   0.00000   0.00806   0.00000   0.00000   0.00007   0.00000
   0.00000   0.00000  -0.00010   0.00000   0.00787   0.00000   0.00000   0.00007



--------------------------------------------------------------------------------
 Results for electron-positron annihilation:

2 computations of positron lifetime have been performed (with different enhancement factors).

########## Lifetime computation 1

 # Zero-positron density limit of Arponen and Pajanne provided by Boronski & Nieminen
   Ref.: Boronski and R.M. Nieminen, Phys. Rev. B 34, 3820 (1986)
 # Enhancement factor of Boronski & Nieminen
   Ref.: Boronski and R.M. Nieminen, Phys. Rev. B 34, 3820 (1986)

 Positron lifetime                         (ps)   =  2.96786933E+02
 Positron lifetime with IPM for core elec. (ps)   =  2.99072096E+02
 Annihilation rate                         (ns-1) =  3.36942058E+00
 Annihilation rate with IPM for core elec. (ns-1) =  3.34367536E+00

 Annihilation rate core/valence decomposition:
   Core    contribution to ann.rate          (ns-1) =  9.87830276E-02
   Valence contribution to ann.rate          (ns-1) =  3.27063755E+00
   Core    contribution to ann.rate with IPM (ns-1) =  6.93035185E-02
   Valence contribution to ann.rate with IPM (ns-1) =  3.27437184E+00

 Annihilation rate PAW decomposition:
   Plane-wave contribution to ann.rate          (ns-1) =  3.32780667E+00
   Plane-wave valence contribution to ann.rate  (ns-1) =  3.27358657E+00
   On-site core contribution to ann.rate        (ns-1) =  4.45629270E-02
   On-site valence contribution to ann.rate     (ns-1) = -2.94902091E-03
   Plane-wave contribution to ann.rate with IPM (ns-1) =  3.30428585E+00
   Plane-wave core contrb. to ann.rate with IPM (ns-1) =  2.51421611E-02

########## Lifetime computation 2

 # Zero-positron density limit of Arponen and Pajanne provided by Boronski & Nieminen
   Ref.: Boronski and R.M. Nieminen, Phys. Rev. B 34, 3820 (1986)
 # Enhancement factor of Boronski & Nieminen IN THE RPA LIMIT
   Ref.: Boronski and R.M. Nieminen, Phys. Rev. B 34, 3820 (1986)

 Positron lifetime                         (ps)   =  2.55612614E+02
 Positron lifetime with IPM for core elec. (ps)   =  2.57303764E+02
 Annihilation rate                         (ns-1) =  3.91217000E+00
 Annihilation rate with IPM for core elec. (ns-1) =  3.88645694E+00

 Annihilation rate core/valence decomposition:
   Core    contribution to ann.rate          (ns-1) =  9.87927839E-02
   Valence contribution to ann.rate          (ns-1) =  3.81337721E+00
   Core    contribution to ann.rate with IPM (ns-1) =  6.93035185E-02
   Valence contribution to ann.rate with IPM (ns-1) =  3.81715342E+00

 Annihilation rate PAW decomposition:
   Plane-wave contribution to ann.rate          (ns-1) =  3.87056019E+00
   Plane-wave valence contribution to ann.rate  (ns-1) =  3.81632619E+00
   On-site core contribution to ann.rate        (ns-1) =  4.45587817E-02
   On-site valence contribution to ann.rate     (ns-1) = -2.94897964E-03
   Plane-wave contribution to ann.rate with IPM (ns-1) =  3.84706439E+00
   Plane-wave core contrb. to ann.rate with IPM (ns-1) =  2.51421611E-02

      (*) IPM=Independent particle Model


---OUTPUT-----------------------------------------------------------------------

 Cartesian coordinates (xcart) [bohr]
  0.00000000000000E+00  0.00000000000000E+00  0.00000000000000E+00
  5.13060643183963E+00  5.13060643183963E+00  3.03755779923429E-33
  5.13060643183963E+00  3.03755779923429E-33  5.13060643183963E+00
  3.03755779923429E-33  5.13060643183963E+00  5.13060643183963E+00
  1.02612128636793E+01  5.13060643183963E+00  5.13060643183963E+00
  5.13060643183963E+00  1.02612128636793E+01  5.13060643183963E+00
  5.13060643183963E+00  5.13060643183963E+00  1.02612128636793E+01
  1.02612128636793E+01  1.02612128636793E+01  1.02612128636793E+01
  2.56530321591981E+00  2.56530321591981E+00  2.56530321591981E+00
  7.69590964775944E+00  7.69590964775944E+00  2.56530321591981E+00
  7.69590964775944E+00  2.56530321591981E+00  7.69590964775944E+00
  2.56530321591981E+00  7.69590964775944E+00  7.69590964775944E+00
  1.28265160795991E+01  7.69590964775944E+00  7.69590964775944E+00
  7.69590964775944E+00  1.28265160795991E+01  7.69590964775944E+00
  7.69590964775944E+00  7.69590964775944E+00  1.28265160795991E+01
 Reduced coordinates (xred)
  0.00000000000000E+00  0.00000000000000E+00  0.00000000000000E+00
 -1.22202274374402E-17  1.22202274374402E-17  5.00000000000000E-01
  1.22202274374402E-17  5.00000000000000E-01 -1.22202274374402E-17
  5.00000000000000E-01  1.22202274374402E-17 -1.22202274374402E-17
  1.22202274374402E-17  5.00000000000000E-01  5.00000000000000E-01
  5.00000000000000E-01  1.22202274374402E-17  5.00000000000000E-01
  5.00000000000000E-01  5.00000000000000E-01 -2.44404548748805E-17
  5.00000000000000E-01  5.00000000000000E-01  5.00000000000000E-01
  1.25000000000000E-01  1.25000000000000E-01  1.25000000000000E-01
  1.25000000000000E-01  1.25000000000000E-01  6.25000000000000E-01
  1.25000000000000E-01  6.25000000000000E-01  1.25000000000000E-01
  6.25000000000000E-01  1.25000000000000E-01  1.25000000000000E-01
  1.25000000000000E-01  6.25000000000000E-01  6.25000000000000E-01
  6.25000000000000E-01  1.25000000000000E-01  6.25000000000000E-01
  6.25000000000000E-01  6.25000000000000E-01  1.25000000000000E-01
 Cartesian forces (fcart) [Ha/bohr]; max,rms= 1.34012E-02 7.53508E-03 (free atoms)
  2.39080501902867E-03  2.39080501902867E-03  2.39080501902867E-03
 -2.39080501902867E-03 -2.39080501902867E-03  2.39080501902867E-03
 -2.39080501902867E-03  2.39080501902867E-03 -2.39080501902867E-03
  2.39080501902867E-03 -2.39080501902867E-03 -2.39080501902867E-03
 -1.34011651646099E-02  1.34011651646099E-02  1.34011651646099E-02
  1.34011651646099E-02 -1.34011651646099E-02  1.34011651646099E-02
  1.34011651646099E-02  1.34011651646099E-02 -1.34011651646099E-02
 -1.34011651646099E-02 -1.34011651646099E-02 -1.34011651646099E-02
  4.62592926927149E-19 -7.01884247720644E-19 -0.00000000000000E+00
  1.28691735999030E-18 -1.46985655493465E-18 -7.43077040271780E-03
  3.42670066978331E-19 -7.43077040271780E-03  1.19922859948818E-19
 -7.43077040271780E-03 -8.21807107669462E-19  1.19922859948818E-19
  7.43077040271780E-03 -5.81961387771826E-19 -1.19922859948818E-19
  5.82515786875966E-19  7.43077040271780E-03 -1.19922859948818E-19
  1.21003180496673E-18 -1.44932312576023E-18  7.43077040271780E-03
 Gradient of E wrt nuclear positions in reduced coordinates (gred)
 -4.90651184316118E-02 -4.90651184316118E-02 -4.90651184316118E-02
  1.03450306687903E-17 -3.53275713902416E-18  4.90651184316118E-02
  9.94413837008164E-18  4.90651184316118E-02  5.49404665842674E-18
  4.90651184316118E-02 -3.93364943773282E-18  2.95300467803153E-18
 -2.75024416750771E-01 -9.62825859669177E-18  9.62825859669177E-18
 -1.38483599794898E-17 -2.75024416750770E-01 -1.38483599794898E-17
  1.17383092880908E-17  1.17383092880908E-17 -2.75024416750771E-01
  2.75024416750771E-01  2.75024416750771E-01  2.75024416750771E-01
  7.20218367152491E-18 -4.74676449243190E-18  2.45541917909302E-18
  7.62487168434150E-02  7.62487168434150E-02  1.87717802043408E-18
  7.62487168434150E-02 -4.74676449243190E-18  7.62487168434150E-02
  7.20218367152491E-18  7.62487168434150E-02  7.62487168434150E-02
  7.20218367152491E-18 -7.62487168434150E-02 -7.62487168434150E-02
 -7.62487168434150E-02 -4.74676449243189E-18 -7.62487168434150E-02
 -7.62487168434150E-02 -7.62487168434150E-02  2.45541917909301E-18
 Total energy (etotal) [Ha]= -6.05883033410683E+01

--- Iteration: (2/4) Internal Cycle: (1/1)
--------------------------------------------------------------------------------

---SELF-CONSISTENT-FIELD CONVERGENCE--------------------------------------------

--- !BeginCycle
iteration_state: {dtset: 1, itime: 2, icycle: 1, }
solver: {iscf: 17, nstep: 500, nline: 4, wfoptalg: 10, }
tolerances: {toldfe: 1.00E-08, }
...

     iter   Etot(hartree)      deltaE(h)  residm     nres2    diffor    maxfor
TC-DFT STEP   1 - ELECTRONIC GROUND-STATE CALCULATION IN PRESENCE OF A POSITRON
 ETOT  1  -60.579623569283    -6.058E+01 9.284E-07 2.690E-03 4.821E-03 1.822E-02
 ETOT  2  -60.579608142722     1.543E-05 1.992E-07 3.477E-04 2.793E-03 1.543E-02
 ETOT  3  -60.579583007346     2.514E-05 6.440E-08 8.735E-06 1.631E-03 1.380E-02
 ETOT  4  -60.579569705751     1.330E-05 6.514E-08 1.860E-06 2.486E-04 1.355E-02
 ETOT  5  -60.579560879146     8.827E-06 6.052E-09 5.424E-07 8.527E-05 1.346E-02
 ETOT  6  -60.579553529231     7.350E-06 2.204E-08 1.778E-07 3.605E-05 1.343E-02
 ETOT  7  -60.579548703129     4.826E-06 6.744E-09 8.135E-08 9.231E-06 1.342E-02
 ETOT  8  -60.579543183824     5.519E-06 2.691E-08 1.811E-08 1.899E-06 1.342E-02
 ETOT  9  -60.579540420662     2.763E-06 8.825E-09 4.620E-09 4.703E-07 1.342E-02
 ETOT 10  -60.579539486305     9.344E-07 1.970E-08 1.157E-09 4.133E-07 1.342E-02
 ETOT 11  -60.579538860342     6.260E-07 6.801E-09 2.953E-10 2.866E-07 1.342E-02
 ETOT 12  -60.579538658372     2.020E-07 1.380E-08 1.154E-10 7.866E-08 1.342E-02
 ETOT 13  -60.579538568139     9.023E-08 4.712E-09 3.567E-11 5.321E-08 1.342E-02
 ETOT 14  -60.579538528134     4.001E-08 9.486E-09 9.060E-12 1.019E-07 1.342E-02
 ETOT 15  -60.579538501365     2.677E-08 3.213E-09 2.440E-12 3.269E-08 1.342E-02
 ETOT 16  -60.579538497071     4.294E-09 6.513E-09 3.361E-13 3.809E-08 1.342E-02
 ETOT 17  -60.579538495352     1.719E-09 2.189E-09 6.826E-14 1.417E-08 1.342E-02

 At SCF step   17, etot is converged : 
  for the second time, diff in etot=  1.719E-09 < toldfe=  1.000E-08

TC-DFT STEP   2 - POSITRONIC GROUND-STATE CALCULATION IN PRESENCE OF ELECTRONS AND IONS
 ETOT 18  -60.590787682734    -1.125E-02 5.450E-04 1.291E-05 3.481E-04 1.307E-02
 ETOT 19  -60.590788401585    -7.189E-07 8.047E-04 6.331E-06 1.398E-05 1.305E-02
 ETOT 20  -60.590788452484    -5.090E-08 1.245E-03 9.147E-07 2.394E-06 1.306E-02
 ETOT 21  -60.590788459465    -6.981E-09 1.614E-03 6.989E-07 7.949E-07 1.306E-02
 ETOT 22  -60.590788460529    -1.064E-09 2.130E-03 1.364E-07 2.438E-07 1.306E-02

 At SCF step   22, etot is converged : 
  for the second time, diff in etot=  1.064E-09 < toldfe=  1.000E-08

TC-DFT STEP   3 - ELECTRONIC GROUND-STATE CALCULATION IN PRESENCE OF A POSITRON
 ETOT 23  -60.590454679755     3.338E-04 2.678E-07 4.068E-05 2.967E-04 1.335E-02
 ETOT 24  -60.590452925560     1.754E-06 2.329E-08 4.722E-06 2.798E-04 1.307E-02
 ETOT 25  -60.590452660866     2.647E-07 2.668E-08 1.001E-06 1.467E-04 1.293E-02
 ETOT 26  -60.590452634157     2.671E-08 1.494E-09 3.699E-07 5.933E-05 1.287E-02
 ETOT 27  -60.590452611470     2.269E-08 3.341E-09 2.178E-08 7.838E-05 1.279E-02
 ETOT 28  -60.590452610994     4.758E-10 7.853E-10 6.070E-09 1.274E-05 1.278E-02
 ETOT 29  -60.590452610604     3.899E-10 2.139E-09 8.061E-10 8.232E-06 1.277E-02

 At SCF step   29, etot is converged : 
  for the second time, diff in etot=  3.899E-10 < toldfe=  1.000E-08

TC-DFT STEP   4 - POSITRONIC GROUND-STATE CALCULATION IN PRESENCE OF ELECTRONS AND IONS
 ETOT 30  -60.590792039735    -3.394E-04 2.258E-03 1.620E-06 9.572E-05 1.286E-02
 ETOT 31  -60.590792045097    -5.363E-09 2.424E-03 7.902E-07 5.108E-07 1.287E-02
 ETOT 32  -60.590792045170    -7.224E-11 2.073E-03 8.507E-08 7.687E-08 1.287E-02

 At SCF step   32, etot is converged : 
  for the second time, diff in etot=  7.224E-11 < toldfe=  1.000E-08

TC-DFT STEP   5 - ELECTRONIC GROUND-STATE CALCULATION IN PRESENCE OF A POSITRON
 ETOT 33  -60.590754141507     3.790E-05 8.156E-09 1.551E-06 1.062E-04 1.297E-02
 ETOT 34  -60.590754073276     6.823E-08 1.418E-09 2.675E-07 7.961E-05 1.289E-02
 ETOT 35  -60.590754058208     1.507E-08 5.818E-10 4.981E-08 4.902E-05 1.284E-02
 ETOT 36  -60.590754056744     1.464E-09 8.471E-10 1.166E-08 1.836E-05 1.282E-02
 ETOT 37  -60.590754056005     7.390E-10 3.126E-10 4.145E-10 1.693E-05 1.281E-02

 At SCF step   37, etot is converged : 
  for the second time, diff in etot=  7.390E-10 < toldfe=  1.000E-08

TC-DFT STEP   6 - POSITRONIC GROUND-STATE CALCULATION IN PRESENCE OF ELECTRONS AND IONS
 ETOT 38  -60.590791299164    -3.724E-05 1.863E-03 2.577E-07 2.556E-05 1.283E-02
 ETOT 39  -60.590791300214    -1.050E-09 1.360E-03 1.537E-07 3.894E-07 1.283E-02
 ETOT 40  -60.590791300224    -9.962E-12 1.084E-03 2.088E-08 1.698E-08 1.283E-02

 At SCF step   40, etot is converged : 
  for the second time, diff in etot=  9.962E-12 < toldfe=  1.000E-08

TC-DFT STEP   7 - ELECTRONIC GROUND-STATE CALCULATION IN PRESENCE OF A POSITRON
 ETOT 41  -60.590785990969     5.309E-06 3.358E-09 5.804E-07 4.725E-05 1.288E-02
 ETOT 42  -60.590785963221     2.775E-08 3.060E-10 8.175E-08 4.145E-05 1.284E-02
 ETOT 43  -60.590785958262     4.959E-09 5.385E-10 1.997E-08 2.205E-05 1.282E-02
 ETOT 44  -60.590785957600     6.623E-10 1.779E-10 7.025E-09 9.432E-06 1.281E-02

 At SCF step   44, etot is converged : 
  for the second time, diff in etot=  6.623E-10 < toldfe=  1.000E-08

 At SCF step   44, the difference between
 etotal from electronic calculation and etotal from positronic calculation
 is converged :  diff(etot_el-etot_pos)=  5.343E-06 < postoldfe=  1.000E-05

--- !ResultsGS
iteration_state: {dtset: 1, itime: 2, icycle: 1, }
comment   : Summary of ground state results
lattice_vectors:
- [  0.0000000,  10.2612129,  10.2612129, ]
- [ 10.2612129,   0.0000000,  10.2612129, ]
- [ 10.2612129,  10.2612129,   0.0000000, ]
lattice_lengths: [  14.51155,   14.51155,   14.51155, ]
lattice_angles: [ 60.000,  60.000,  60.000, ] # degrees, (23, 13, 12)
lattice_volume:   2.1608573E+03
convergence: {deltae:  6.623E-10, res2:  7.025E-09, residm:  1.779E-10, diffor:  9.432E-06, }
etotal    :  -6.05907860E+01
entropy   :   0.00000000E+00
fermie    :   2.04245398E-01
cartesian_stress_tensor: null
pressure_GPa: null
xred      :
- [  1.1650E-04,   1.1650E-04,   1.1650E-04, Si]
- [  1.1650E-04,   1.1650E-04,   4.9965E-01, Si]
- [  1.1650E-04,   4.9965E-01,   1.1650E-04, Si]
- [  4.9965E-01,   1.1650E-04,   1.1650E-04, Si]
- [  1.9590E-03,   4.9935E-01,   4.9935E-01, Si]
- [  4.9935E-01,   1.9590E-03,   4.9935E-01, Si]
- [  4.9935E-01,   4.9935E-01,   1.9590E-03, Si]
- [  4.9935E-01,   4.9935E-01,   4.9935E-01, Si]
- [  1.2500E-01,   1.2500E-01,   1.2500E-01, Si]
- [  1.2464E-01,   1.2464E-01,   6.2536E-01, Si]
- [  1.2464E-01,   6.2536E-01,   1.2464E-01, Si]
- [  6.2536E-01,   1.2464E-01,   1.2464E-01, Si]
- [  1.2464E-01,   6.2536E-01,   6.2536E-01, Si]
- [  6.2536E-01,   1.2464E-01,   6.2536E-01, Si]
- [  6.2536E-01,   6.2536E-01,   1.2464E-01, Si]
cartesian_forces: # hartree/bohr
- [  2.17201476E-03,   2.17201476E-03,   2.17201476E-03, ]
- [ -2.17201476E-03,  -2.17201476E-03,   2.17201476E-03, ]
- [ -2.17201476E-03,   2.17201476E-03,  -2.17201476E-03, ]
- [  2.17201476E-03,  -2.17201476E-03,  -2.17201476E-03, ]
- [ -1.28069750E-02,   1.28069750E-02,   1.28069750E-02, ]
- [  1.28069750E-02,  -1.28069750E-02,   1.28069750E-02, ]
- [  1.28069750E-02,   1.28069750E-02,  -1.28069750E-02, ]
- [ -1.28069750E-02,  -1.28069750E-02,  -1.28069750E-02, ]
- [ -1.15648233E-19,  -5.25453436E-20,   1.15648234E-19, ]
- [ -6.00334634E-19,   4.88493185E-19,  -6.71803052E-03, ]
- [ -3.64666354E-20,  -6.71803052E-03,   3.64666354E-20, ]
- [ -6.71803052E-03,   2.66362536E-20,   3.64666354E-20, ]
- [  6.71803052E-03,  -1.31726939E-19,   1.94829828E-19, ]
- [ -1.94829828E-19,   6.71803052E-03,   1.94829828E-19, ]
- [ -3.64666354E-20,  -1.31726939E-19,   6.71803052E-03, ]
force_length_stats: {min:   1.71784868E-19, max:   2.21823315E-02, mean:   9.60571124E-03, }
...

 Integrated electronic density in atomic spheres:
 ------------------------------------------------
 Atom  Sphere_radius  Integrated_density
    1        1.90945          1.55147762
    2        1.90945          1.55147762
    3        1.90945          1.55147762
    4        1.90945          1.55147762
    5        1.90945          1.50311205
    6        1.90945          1.50311205
    7        1.90945          1.50311205
    8        1.90945          1.50311205
    9        1.90945          1.56194757
   10        1.90945          1.55268611
   11        1.90945          1.55268611
   12        1.90945          1.55268611
   13        1.90945          1.55268611
   14        1.90945          1.55268611
   15        1.90945          1.55268611

 PAW TEST:
 ==== Compensation charge inside spheres ============
 The following values must be close to each other ...
 Compensation charge over spherical meshes =     -1.547425246833177
 Compensation charge over fine fft grid    =     -1.547436361555712

 ==== Results concerning PAW augmentation regions ====

 Total pseudopotential strength Dij (hartree):
 -Note: these are the electronic Dij
 Atom #  1
   0.47228  73.73680  -0.00001  -0.00001  -0.00001   0.00016   0.00016   0.00016
  73.73680 *********  -0.00269  -0.00269  -0.00269   0.03032   0.03032   0.03032
  -0.00001  -0.00269   0.13262  -0.00000  -0.00000  -1.06940   0.00001   0.00001
  -0.00001  -0.00269  -0.00000   0.13262  -0.00000   0.00001  -1.06940   0.00001
  -0.00001  -0.00269  -0.00000  -0.00000   0.13262   0.00001   0.00001  -1.06940
   0.00016   0.03032  -1.06940   0.00001   0.00001   7.65683  -0.00015  -0.00015
   0.00016   0.03032   0.00001  -1.06940   0.00001  -0.00015   7.65683  -0.00015
   0.00016   0.03032   0.00001   0.00001  -1.06940  -0.00015  -0.00015   7.65683
 Atom # 15
   0.47261  73.81533   0.00000  -0.00004   0.00000   0.00000   0.00043   0.00000
  73.81533 *********   0.00000  -0.00756   0.00000   0.00000   0.07618   0.00000
   0.00000   0.00000   0.13264   0.00000   0.00000  -1.07027   0.00000  -0.00006
  -0.00004  -0.00756   0.00000   0.13264   0.00000   0.00000  -1.07022   0.00000
   0.00000   0.00000   0.00000   0.00000   0.13264  -0.00006   0.00000  -1.07027
   0.00000   0.00000  -1.07027   0.00000  -0.00006   7.66986   0.00000   0.00076
   0.00043   0.07618   0.00000  -1.07022   0.00000   0.00000   7.66917   0.00000
   0.00000   0.00000  -0.00006   0.00000  -1.07027   0.00076   0.00000   7.66986


 Augmentation waves occupancies Rhoij:
 -Note: these are the electronic Rhoij
 Atom #  1
   1.46886   0.00010   0.00233   0.00233   0.00233   0.00000   0.00000   0.00000
   0.00010   0.00000   0.00001   0.00001   0.00001   0.00000   0.00000   0.00000
   0.00233   0.00001   1.14745   0.00692   0.00692   0.00807  -0.00001  -0.00001
   0.00233   0.00001   0.00692   1.14745   0.00692  -0.00001   0.00807  -0.00001
   0.00233   0.00001   0.00692   0.00692   1.14745  -0.00001  -0.00001   0.00807
   0.00000   0.00000   0.00807  -0.00001  -0.00001   0.00007  -0.00000  -0.00000
   0.00000   0.00000  -0.00001   0.00807  -0.00001  -0.00000   0.00007  -0.00000
   0.00000   0.00000  -0.00001  -0.00001   0.00807  -0.00000  -0.00000   0.00007
 Atom # 15
   1.47071   0.00011   0.00000  -0.00468   0.00000   0.00000  -0.00004   0.00000
   0.00011   0.00000   0.00000   0.00000   0.00000   0.00000   0.00000   0.00000
   0.00000   0.00000   1.11385   0.00000  -0.06690   0.00789   0.00000  -0.00012
  -0.00468   0.00000   0.00000   1.18462   0.00000   0.00000   0.00811   0.00000
   0.00000   0.00000  -0.06690   0.00000   1.11385  -0.00012   0.00000   0.00789
   0.00000   0.00000   0.00789   0.00000  -0.00012   0.00007   0.00000   0.00000
  -0.00004   0.00000   0.00000   0.00811   0.00000   0.00000   0.00007   0.00000
   0.00000   0.00000  -0.00012   0.00000   0.00789   0.00000   0.00000   0.00007



--------------------------------------------------------------------------------
 Results for electron-positron annihilation:

2 computations of positron lifetime have been performed (with different enhancement factors).

########## Lifetime computation 1

 # Zero-positron density limit of Arponen and Pajanne provided by Boronski & Nieminen
   Ref.: Boronski and R.M. Nieminen, Phys. Rev. B 34, 3820 (1986)
 # Enhancement factor of Boronski & Nieminen
   Ref.: Boronski and R.M. Nieminen, Phys. Rev. B 34, 3820 (1986)

 Positron lifetime                         (ps)   =  2.99189802E+02
 Positron lifetime with IPM for core elec. (ps)   =  3.01458259E+02
 Annihilation rate                         (ns-1) =  3.34235991E+00
 Annihilation rate with IPM for core elec. (ns-1) =  3.31720883E+00

 Annihilation rate core/valence decomposition:
   Core    contribution to ann.rate          (ns-1) =  9.62831896E-02
   Valence contribution to ann.rate          (ns-1) =  3.24607673E+00
   Core    contribution to ann.rate with IPM (ns-1) =  6.74687239E-02
   Valence contribution to ann.rate with IPM (ns-1) =  3.24974011E+00

 Annihilation rate PAW decomposition:
   Plane-wave contribution to ann.rate          (ns-1) =  3.30168996E+00
   Plane-wave valence contribution to ann.rate  (ns-1) =  3.24892889E+00
   On-site core contribution to ann.rate        (ns-1) =  4.35221220E-02
   On-site valence contribution to ann.rate     (ns-1) = -2.85216457E-03
   Plane-wave contribution to ann.rate with IPM (ns-1) =  3.27880312E+00
   Plane-wave core contrb. to ann.rate with IPM (ns-1) =  2.44513322E-02

########## Lifetime computation 2

 # Zero-positron density limit of Arponen and Pajanne provided by Boronski & Nieminen
   Ref.: Boronski and R.M. Nieminen, Phys. Rev. B 34, 3820 (1986)
 # Enhancement factor of Boronski & Nieminen IN THE RPA LIMIT
   Ref.: Boronski and R.M. Nieminen, Phys. Rev. B 34, 3820 (1986)

 Positron lifetime                         (ps)   =  2.56978374E+02
 Positron lifetime with IPM for core elec. (ps)   =  2.58648018E+02
 Annihilation rate                         (ns-1) =  3.89137803E+00
 Annihilation rate with IPM for core elec. (ns-1) =  3.86625812E+00

 Annihilation rate core/valence decomposition:
   Core    contribution to ann.rate          (ns-1) =  9.62912312E-02
   Valence contribution to ann.rate          (ns-1) =  3.79508680E+00
   Core    contribution to ann.rate with IPM (ns-1) =  6.74687239E-02
   Valence contribution to ann.rate with IPM (ns-1) =  3.79878940E+00

 Annihilation rate PAW decomposition:
   Plane-wave contribution to ann.rate          (ns-1) =  3.85071194E+00
   Plane-wave valence contribution to ann.rate  (ns-1) =  3.79793892E+00
   On-site core contribution to ann.rate        (ns-1) =  4.35182187E-02
   On-site valence contribution to ann.rate     (ns-1) = -2.85212566E-03
   Plane-wave contribution to ann.rate with IPM (ns-1) =  3.82784922E+00
   Plane-wave core contrb. to ann.rate with IPM (ns-1) =  2.44513322E-02

      (*) IPM=Independent particle Model


---OUTPUT-----------------------------------------------------------------------

 Cartesian coordinates (xcart) [bohr]
  2.39080501902867E-03  2.39080501902867E-03  2.39080501902867E-03
  5.12821562682060E+00  5.12821562682060E+00  2.39080501902867E-03
  5.12821562682060E+00  2.39080501902867E-03  5.12821562682060E+00
  2.39080501902867E-03  5.12821562682060E+00  5.12821562682060E+00
  1.02478116985146E+01  5.14400759700424E+00  5.14400759700424E+00
  5.14400759700424E+00  1.02478116985146E+01  5.14400759700424E+00
  5.14400759700424E+00  5.14400759700424E+00  1.02478116985146E+01
  1.02478116985146E+01  1.02478116985146E+01  1.02478116985146E+01
  2.56530321591981E+00  2.56530321591981E+00  2.56530321591981E+00
  7.69590964775944E+00  7.69590964775944E+00  2.55787244551710E+00
  7.69590964775944E+00  2.55787244551710E+00  7.69590964775944E+00
  2.55787244551710E+00  7.69590964775944E+00  7.69590964775944E+00
  1.28339468500018E+01  7.69590964775944E+00  7.69590964775944E+00
  7.69590964775944E+00  1.28339468500018E+01  7.69590964775944E+00
  7.69590964775944E+00  7.69590964775944E+00  1.28339468500018E+01
 Reduced coordinates (xred)
  1.16497194376076E-04  1.16497194376076E-04  1.16497194376076E-04
  1.16497194376064E-04  1.16497194376088E-04  4.99650508416872E-01
  1.16497194376088E-04  4.99650508416872E-01  1.16497194376064E-04
  4.99650508416872E-01  1.16497194376088E-04  1.16497194376064E-04
  1.95900309388059E-03  4.99346998968706E-01  4.99346998968706E-01
  4.99346998968706E-01  1.95900309388059E-03  4.99346998968706E-01
  4.99346998968706E-01  4.99346998968706E-01  1.95900309388055E-03
  4.99346998968706E-01  4.99346998968706E-01  4.99346998968706E-01
  1.25000000000000E-01  1.25000000000000E-01  1.25000000000000E-01
  1.24637919488591E-01  1.24637919488591E-01  6.25362080511409E-01
  1.24637919488591E-01  6.25362080511409E-01  1.24637919488591E-01
  6.25362080511409E-01  1.24637919488591E-01  1.24637919488591E-01
  1.24637919488591E-01  6.25362080511409E-01  6.25362080511409E-01
  6.25362080511409E-01  1.24637919488591E-01  6.25362080511409E-01
  6.25362080511409E-01  6.25362080511409E-01  1.24637919488591E-01
 Cartesian forces (fcart) [Ha/bohr]; max,rms= 1.28070E-02 7.14240E-03 (free atoms)
  2.17201475601430E-03  2.17201475601430E-03  2.17201475601430E-03
 -2.17201475601430E-03 -2.17201475601430E-03  2.17201475601430E-03
 -2.17201475601430E-03  2.17201475601430E-03 -2.17201475601430E-03
  2.17201475601430E-03 -2.17201475601430E-03 -2.17201475601430E-03
 -1.28069750453730E-02  1.28069750453730E-02  1.28069750453730E-02
  1.28069750453730E-02 -1.28069750453730E-02  1.28069750453730E-02
  1.28069750453730E-02  1.28069750453730E-02 -1.28069750453730E-02
 -1.28069750453730E-02 -1.28069750453730E-02 -1.28069750453730E-02
 -1.15648232571499E-19 -5.25453436168840E-20  1.15648234250923E-19
 -6.00334634132241E-19  4.88493185472429E-19 -6.71803051566832E-03
 -3.64666354009616E-20 -6.71803051566832E-03  3.64666354009616E-20
 -6.71803051566832E-03  2.66362535536537E-20  3.64666354009616E-20
  6.71803051566832E-03 -1.31726939107997E-19  1.94829828062613E-19
 -1.94829828062613E-19  6.71803051566832E-03  1.94829828062613E-19
 -3.64666354009616E-20 -1.31726939107997E-19  6.71803051566832E-03
 Gradient of E wrt nuclear positions in reduced coordinates (gred)
 -4.45750115090301E-02 -4.45750115090301E-02 -4.45750115090301E-02
 -2.62091647009993E-19 -2.62091647009993E-19  4.45750115090301E-02
 -7.18553112691295E-19  4.45750115090301E-02 -7.18553112691295E-19
  4.45750115090301E-02 -1.69919787239258E-18  1.69919787239258E-18
 -2.62830194160802E-01  5.67034281069022E-19 -5.67034281069022E-19
  5.67034281069022E-19 -2.62830194160802E-01  5.67034281069022E-19
 -5.67034281069022E-19 -5.67034281069022E-19 -2.62830194160802E-01
  2.62830194160802E-01  2.62830194160802E-01  2.62830194160802E-01
 -6.47512193109351E-19 -1.72329293940858E-26  1.72587008757246E-18
  6.89351411459655E-02  6.89351411459655E-02  1.14762891168059E-18
  6.89351411459655E-02 -8.64921857592898E-36  6.89351411459655E-02
 -6.47512175876422E-19  6.89351411459655E-02  6.89351411459655E-02
 -6.47512175876422E-19 -6.89351411459655E-02 -6.89351411459655E-02
 -6.89351411459655E-02 -1.67055896866203E-34 -6.89351411459655E-02
 -6.89351411459655E-02 -6.89351411459655E-02  1.72587007033953E-18
 Total energy (etotal) [Ha]= -6.05907859575997E+01

 Difference of energy with previous step (new-old):
           Absolute (Ha)=-2.48262E-03
           Relative     =-4.09743E-05

--- Iteration: (3/4) Internal Cycle: (1/1)
--------------------------------------------------------------------------------

---SELF-CONSISTENT-FIELD CONVERGENCE--------------------------------------------

--- !BeginCycle
iteration_state: {dtset: 1, itime: 3, icycle: 1, }
solver: {iscf: 17, nstep: 500, nline: 4, wfoptalg: 10, }
tolerances: {toldfe: 1.00E-08, }
...

     iter   Etot(hartree)      deltaE(h)  residm     nres2    diffor    maxfor
TC-DFT STEP   1 - ELECTRONIC GROUND-STATE CALCULATION IN PRESENCE OF A POSITRON
 ETOT  1  -60.416127452911    -6.042E+01 2.753E-03 4.606E-01 3.480E-01 3.608E-01
 ETOT  2  -60.422539480682    -6.412E-03 4.539E-06 7.085E-02 2.786E-01 8.218E-02
 ETOT  3  -60.422610119914    -7.064E-05 7.175E-06 2.733E-03 5.729E-02 2.489E-02
 ETOT  4  -60.422518002429     9.212E-05 4.808E-06 4.890E-04 6.765E-03 1.813E-02
 ETOT  5  -60.422505340540     1.266E-05 3.557E-07 8.099E-05 2.655E-03 1.547E-02
 ETOT  6  -60.422512833338    -7.493E-06 9.011E-07 5.873E-06 9.108E-04 1.456E-02
 ETOT  7  -60.422518819203    -5.986E-06 4.073E-08 8.143E-07 1.978E-04 1.436E-02
 ETOT  8  -60.422523501738    -4.683E-06 1.018E-07 2.208E-07 2.704E-05 1.434E-02
 ETOT  9  -60.422527330869    -3.829E-06 5.250E-09 8.310E-08 2.541E-06 1.434E-02
 ETOT 10  -60.422529541098    -2.210E-06 1.297E-08 4.492E-08 2.012E-07 1.434E-02
 ETOT 11  -60.422532111880    -2.571E-06 1.640E-09 1.587E-08 1.836E-06 1.434E-02
 ETOT 12  -60.422534693548    -2.582E-06 2.794E-09 1.535E-09 1.293E-06 1.434E-02
 ETOT 13  -60.422535619308    -9.258E-07 7.034E-10 6.068E-11 6.234E-07 1.434E-02
 ETOT 14  -60.422535721529    -1.022E-07 2.914E-10 1.237E-11 2.606E-07 1.434E-02
 ETOT 15  -60.422535727173    -5.644E-09 1.193E-10 5.736E-12 7.824E-08 1.434E-02
 ETOT 16  -60.422535724951     2.222E-09 4.730E-11 1.452E-12 5.278E-08 1.434E-02

 At SCF step   16, etot is converged : 
  for the second time, diff in etot=  2.222E-09 < toldfe=  1.000E-08

TC-DFT STEP   2 - POSITRONIC GROUND-STATE CALCULATION IN PRESENCE OF ELECTRONS AND IONS
 ETOT 17  -60.612711377138    -1.902E-01 4.733E-03 2.073E-03 8.999E-03 5.338E-03
 ETOT 18  -60.612894086254    -1.827E-04 1.205E-03 9.355E-04 2.229E-04 5.190E-03
 ETOT 19  -60.612910788040    -1.670E-05 3.607E-04 1.325E-04 7.818E-05 5.193E-03
 ETOT 20  -60.612913286090    -2.498E-06 2.681E-04 8.859E-05 1.737E-05 5.184E-03
 ETOT 21  -60.612913704810    -4.187E-07 1.507E-04 1.887E-05 1.307E-05 5.189E-03
 ETOT 22  -60.612913781243    -7.643E-08 1.388E-04 2.102E-06 3.307E-06 5.186E-03
 ETOT 23  -60.612913795590    -1.435E-08 7.605E-05 3.670E-07 2.422E-06 5.188E-03
 ETOT 24  -60.612913798332    -2.742E-09 8.478E-05 5.811E-08 6.517E-07 5.187E-03
 ETOT 25  -60.612913798864    -5.319E-10 5.038E-05 1.193E-08 4.601E-07 5.188E-03

 At SCF step   25, etot is converged : 
  for the second time, diff in etot=  5.319E-10 < toldfe=  1.000E-08

TC-DFT STEP   3 - ELECTRONIC GROUND-STATE CALCULATION IN PRESENCE OF A POSITRON
 ETOT 26  -60.613299759726    -3.860E-04 8.365E-06 3.640E-03 3.682E-03 8.870E-03
 ETOT 27  -60.613146250908     1.535E-04 7.766E-07 6.347E-04 2.986E-03 6.105E-03
 ETOT 28  -60.613106230028     4.002E-05 2.719E-07 1.080E-04 1.804E-03 6.258E-03
 ETOT 29  -60.613103257540     2.972E-06 3.059E-08 5.567E-05 4.986E-04 6.331E-03
 ETOT 30  -60.613099279004     3.979E-06 2.606E-08 4.308E-06 9.675E-04 6.379E-03
 ETOT 31  -60.613099216283     6.272E-08 1.084E-08 1.609E-06 8.534E-05 6.391E-03
 ETOT 32  -60.613099155374     6.091E-08 3.910E-09 3.332E-07 9.197E-05 6.391E-03
 ETOT 33  -60.613099130905     2.447E-08 3.179E-09 1.491E-08 8.536E-05 6.397E-03
 ETOT 34  -60.613099132434    -1.529E-09 3.536E-10 1.593E-08 1.041E-06 6.397E-03
 ETOT 35  -60.613099131960     4.732E-10 3.401E-10 1.370E-09 5.680E-06 6.397E-03

 At SCF step   35, etot is converged : 
  for the second time, diff in etot=  4.732E-10 < toldfe=  1.000E-08

TC-DFT STEP   4 - POSITRONIC GROUND-STATE CALCULATION IN PRESENCE OF ELECTRONS AND IONS
 ETOT 36  -60.613130127932    -3.100E-05 5.889E-05 1.056E-04 5.031E-04 6.176E-03
 ETOT 37  -60.613130645146    -5.172E-07 4.499E-05 4.913E-05 5.581E-06 6.177E-03
 ETOT 38  -60.613130649622    -4.476E-09 4.907E-05 4.188E-06 1.876E-07 6.177E-03
 ETOT 39  -60.613130649877    -2.547E-10 3.993E-05 2.882E-06 9.371E-08 6.177E-03

 At SCF step   39, etot is converged : 
  for the second time, diff in etot=  2.547E-10 < toldfe=  1.000E-08

TC-DFT STEP   5 - ELECTRONIC GROUND-STATE CALCULATION IN PRESENCE OF A POSITRON
 ETOT 40  -60.611830228759     1.300E-03 2.831E-07 8.098E-05 1.121E-03 6.242E-03
 ETOT 41  -60.611826738032     3.491E-06 1.829E-08 1.926E-05 6.938E-04 6.259E-03
 ETOT 42  -60.611825491817     1.246E-06 9.138E-09 2.632E-06 5.263E-04 6.282E-03
 ETOT 43  -60.611825416053     7.576E-08 4.197E-10 1.087E-06 1.009E-04 6.290E-03
 ETOT 44  -60.611825352729     6.332E-08 3.965E-10 4.222E-08 1.615E-04 6.297E-03
 ETOT 45  -60.611825352701     2.797E-11 1.171E-10 1.899E-08 6.726E-06 6.297E-03
 ETOT 46  -60.611825352095     6.064E-10 3.500E-11 3.902E-09 1.007E-05 6.297E-03

 At SCF step   46, etot is converged : 
  for the second time, diff in etot=  6.064E-10 < toldfe=  1.000E-08

TC-DFT STEP   6 - POSITRONIC GROUND-STATE CALCULATION IN PRESENCE OF ELECTRONS AND IONS
 ETOT 47  -60.613144606120    -1.319E-03 4.515E-05 7.595E-06 1.111E-04 6.252E-03
 ETOT 48  -60.613144687650    -8.153E-08 3.809E-05 4.300E-06 4.192E-06 6.254E-03
 ETOT 49  -60.613144688396    -7.462E-10 4.280E-05 7.635E-07 9.683E-08 6.254E-03
 ETOT 50  -60.613144688438    -4.170E-11 3.636E-05 4.522E-07 4.149E-08 6.254E-03

 At SCF step   50, etot is converged : 
  for the second time, diff in etot=  4.170E-11 < toldfe=  1.000E-08

TC-DFT STEP   7 - ELECTRONIC GROUND-STATE CALCULATION IN PRESENCE OF A POSITRON
 ETOT 51  -60.612528456505     6.162E-04 3.544E-08 1.052E-05 3.214E-04 6.289E-03
 ETOT 52  -60.612527943605     5.129E-07 2.726E-09 2.369E-06 2.252E-04 6.291E-03
 ETOT 53  -60.612527775516     1.681E-07 9.945E-10 4.783E-07 1.462E-04 6.297E-03
 ETOT 54  -60.612527759120     1.640E-08 7.996E-11 2.381E-07 3.711E-05 6.301E-03
 ETOT 55  -60.612527741203     1.792E-08 1.282E-10 1.170E-08 7.650E-05 6.304E-03
 ETOT 56  -60.612527741187     1.577E-11 2.891E-11 3.782E-09 3.816E-06 6.304E-03
 ETOT 57  -60.612527741068     1.190E-10 9.160E-12 6.465E-10 4.938E-06 6.304E-03

 At SCF step   57, etot is converged : 
  for the second time, diff in etot=  1.190E-10 < toldfe=  1.000E-08

TC-DFT STEP   8 - POSITRONIC GROUND-STATE CALCULATION IN PRESENCE OF ELECTRONS AND IONS
 ETOT 58  -60.613143080381    -6.153E-04 4.090E-05 9.302E-07 3.510E-05 6.290E-03
 ETOT 59  -60.613143085969    -5.588E-09 3.474E-05 4.644E-07 1.187E-06 6.290E-03
 ETOT 60  -60.613143086019    -5.041E-11 3.877E-05 6.168E-08 3.133E-08 6.290E-03

 At SCF step   60, etot is converged : 
  for the second time, diff in etot=  5.041E-11 < toldfe=  1.000E-08

TC-DFT STEP   9 - ELECTRONIC GROUND-STATE CALCULATION IN PRESENCE OF A POSITRON
 ETOT 61  -60.613134475597     8.610E-06 1.694E-09 5.177E-07 9.021E-05 6.296E-03
 ETOT 62  -60.613134453076     2.252E-08 1.119E-10 1.334E-07 5.573E-05 6.297E-03
 ETOT 63  -60.613134444201     8.875E-09 5.825E-11 1.840E-08 4.350E-05 6.299E-03
 ETOT 64  -60.613134443661     5.396E-10 2.573E-12 8.013E-09 8.439E-06 6.300E-03

 At SCF step   64, etot is converged : 
  for the second time, diff in etot=  5.396E-10 < toldfe=  1.000E-08

 At SCF step   64, the difference between
 etotal from electronic calculation and etotal from positronic calculation
 is converged :  diff(etot_el-etot_pos)=  8.642E-06 < postoldfe=  1.000E-05

--- !ResultsGS
iteration_state: {dtset: 1, itime: 3, icycle: 1, }
comment   : Summary of ground state results
lattice_vectors:
- [  0.0000000,  10.2612129,  10.2612129, ]
- [ 10.2612129,   0.0000000,  10.2612129, ]
- [ 10.2612129,  10.2612129,   0.0000000, ]
lattice_lengths: [  14.51155,   14.51155,   14.51155, ]
lattice_angles: [ 60.000,  60.000,  60.000, ] # degrees, (23, 13, 12)
lattice_volume:   2.1608573E+03
convergence: {deltae:  5.396E-10, res2:  8.013E-09, residm:  2.573E-12, diffor:  8.439E-06, }
etotal    :  -6.06131344E+01
entropy   :   0.00000000E+00
fermie    :   1.93925615E-01
cartesian_stress_tensor: null
pressure_GPa: null
xred      :
- [  2.1549E-03,   2.1549E-03,   2.1549E-03, Si]
- [  2.1549E-03,   2.1549E-03,   4.9354E-01, Si]
- [  2.1549E-03,   4.9354E-01,   2.1549E-03, Si]
- [  4.9354E-01,   2.1549E-03,   2.1549E-03, Si]
- [  3.8004E-02,   4.8733E-01,   4.8733E-01, Si]
- [  4.8733E-01,   3.8004E-02,   4.8733E-01, Si]
- [  4.8733E-01,   4.8733E-01,   3.8004E-02, Si]
- [  4.8733E-01,   4.8733E-01,   4.8733E-01, Si]
- [  1.2500E-01,   1.2500E-01,   1.2500E-01, Si]
- [  1.1833E-01,   1.1833E-01,   6.3167E-01, Si]
- [  1.1833E-01,   6.3167E-01,   1.1833E-01, Si]
- [  6.3167E-01,   1.1833E-01,   1.1833E-01, Si]
- [  1.1833E-01,   6.3167E-01,   6.3167E-01, Si]
- [  6.3167E-01,   1.1833E-01,   6.3167E-01, Si]
- [  6.3167E-01,   6.3167E-01,   1.1833E-01, Si]
cartesian_forces: # hartree/bohr
- [ -4.62934066E-03,  -4.62934066E-03,  -4.62934066E-03, ]
- [  4.62934066E-03,   4.62934066E-03,  -4.62934066E-03, ]
- [  4.62934066E-03,  -4.62934066E-03,   4.62934066E-03, ]
- [ -4.62934066E-03,   4.62934066E-03,   4.62934066E-03, ]
- [ -2.42594723E-03,   2.42594723E-03,   2.42594723E-03, ]
- [  2.42594723E-03,  -2.42594723E-03,   2.42594723E-03, ]
- [  2.42594723E-03,   2.42594723E-03,  -2.42594723E-03, ]
- [ -2.42594723E-03,  -2.42594723E-03,  -2.42594723E-03, ]
- [  8.48577695E-20,   1.34337098E-19,  -1.15648231E-19, ]
- [  4.70694191E-20,   2.28477574E-19,   6.29970600E-03, ]
- [ -1.15022042E-18,   6.29970600E-03,   1.11942996E-18, ]
- [  6.29970600E-03,  -4.24515586E-19,   4.43204452E-19, ]
- [ -6.29970600E-03,  -4.16716598E-19,   4.35405464E-19, ]
- [  2.10029584E-19,  -6.29970600E-03,  -2.40820046E-19, ]
- [ -4.45818851E-19,   7.21365844E-19,  -6.29970600E-03, ]
force_length_stats: {min:   1.96524325E-19, max:   8.01825324E-03, mean:   5.77858029E-03, }
...

 Integrated electronic density in atomic spheres:
 ------------------------------------------------
 Atom  Sphere_radius  Integrated_density
    1        1.90945          1.57364790
    2        1.90945          1.57364790
    3        1.90945          1.57364790
    4        1.90945          1.57364790
    5        1.90945          1.51788610
    6        1.90945          1.51788610
    7        1.90945          1.51788610
    8        1.90945          1.51788610
    9        1.90945          1.60029690
   10        1.90945          1.55823008
   11        1.90945          1.55823008
   12        1.90945          1.55823008
   13        1.90945          1.55823008
   14        1.90945          1.55823008
   15        1.90945          1.55823008

 PAW TEST:
 ==== Compensation charge inside spheres ============
 The following values must be close to each other ...
 Compensation charge over spherical meshes =     -1.535740417748281
 Compensation charge over fine fft grid    =     -1.535740755658003

 ==== Results concerning PAW augmentation regions ====

 Total pseudopotential strength Dij (hartree):
 -Note: these are the electronic Dij
 Atom #  1
   0.47275  73.83490   0.00005   0.00005   0.00005  -0.00045  -0.00045  -0.00045
  73.83490 *********   0.00795   0.00795   0.00795  -0.07731  -0.07731  -0.07731
   0.00005   0.00795   0.13271  -0.00000  -0.00000  -1.07080   0.00004   0.00004
   0.00005   0.00795  -0.00000   0.13271  -0.00000   0.00004  -1.07080   0.00004
   0.00005   0.00795  -0.00000  -0.00000   0.13271   0.00004   0.00004  -1.07080
  -0.00045  -0.07731  -1.07080   0.00004   0.00004   7.67413  -0.00043  -0.00043
  -0.00045  -0.07731   0.00004  -1.07080   0.00004  -0.00043   7.67413  -0.00043
  -0.00045  -0.07731   0.00004   0.00004  -1.07080  -0.00043  -0.00043   7.67413
 Atom # 15
   0.47275  73.83994   0.00000   0.00012   0.00000   0.00000  -0.00113   0.00000
  73.83994 *********   0.00000   0.01971   0.00000   0.00000  -0.19078   0.00000
   0.00000   0.00000   0.13268   0.00000   0.00002  -1.07073   0.00000  -0.00020
   0.00012   0.01971   0.00000   0.13268   0.00000   0.00000  -1.07062   0.00000
   0.00000   0.00000   0.00002   0.00000   0.13268  -0.00020   0.00000  -1.07073
   0.00000   0.00000  -1.07073   0.00000  -0.00020   7.67472   0.00000   0.00208
  -0.00113  -0.19078   0.00000  -1.07062   0.00000   0.00000   7.67353   0.00000
   0.00000   0.00000  -0.00020   0.00000  -1.07073   0.00208   0.00000   7.67472


 Augmentation waves occupancies Rhoij:
 -Note: these are the electronic Rhoij
 Atom #  1
   1.47194   0.00005   0.00751   0.00751   0.00751  -0.00005  -0.00005  -0.00005
   0.00005   0.00000   0.00001   0.00001   0.00001   0.00000   0.00000   0.00000
   0.00751   0.00001   1.17007   0.01962   0.01962   0.00841   0.00015   0.00015
   0.00751   0.00001   0.01962   1.17007   0.01962   0.00015   0.00841   0.00015
   0.00751   0.00001   0.01962   0.01962   1.17007   0.00015   0.00015   0.00841
  -0.00005   0.00000   0.00841   0.00015   0.00015   0.00007   0.00000   0.00000
  -0.00005   0.00000   0.00015   0.00841   0.00015   0.00000   0.00007   0.00000
  -0.00005   0.00000   0.00015   0.00015   0.00841   0.00000   0.00000   0.00007
 Atom # 15
   1.47243   0.00008   0.00000   0.01693   0.00000   0.00000  -0.00029   0.00000
   0.00008   0.00000   0.00000   0.00003   0.00000   0.00000   0.00000   0.00000
   0.00000   0.00000   1.13484   0.00000  -0.07162   0.00801   0.00000  -0.00055
   0.01693   0.00003   0.00000   1.19062   0.00000   0.00000   0.00869   0.00000
   0.00000   0.00000  -0.07162   0.00000   1.13484  -0.00055   0.00000   0.00801
   0.00000   0.00000   0.00801   0.00000  -0.00055   0.00007   0.00000  -0.00001
  -0.00029   0.00000   0.00000   0.00869   0.00000   0.00000   0.00008   0.00000
   0.00000   0.00000  -0.00055   0.00000   0.00801  -0.00001   0.00000   0.00007



--------------------------------------------------------------------------------
 Results for electron-positron annihilation:

2 computations of positron lifetime have been performed (with different enhancement factors).

########## Lifetime computation 1

 # Zero-positron density limit of Arponen and Pajanne provided by Boronski & Nieminen
   Ref.: Boronski and R.M. Nieminen, Phys. Rev. B 34, 3820 (1986)
 # Enhancement factor of Boronski & Nieminen
   Ref.: Boronski and R.M. Nieminen, Phys. Rev. B 34, 3820 (1986)

 Positron lifetime                         (ps)   =  3.45100036E+02
 Positron lifetime with IPM for core elec. (ps)   =  3.46984596E+02
 Annihilation rate                         (ns-1) =  2.89771050E+00
 Annihilation rate with IPM for core elec. (ns-1) =  2.88197232E+00

 Annihilation rate core/valence decomposition:
   Core    contribution to ann.rate          (ns-1) =  5.92855372E-02
   Valence contribution to ann.rate          (ns-1) =  2.83842497E+00
   Core    contribution to ann.rate with IPM (ns-1) =  4.11957068E-02
   Valence contribution to ann.rate with IPM (ns-1) =  2.84077661E+00

 Annihilation rate PAW decomposition:
   Plane-wave contribution to ann.rate          (ns-1) =  2.87118084E+00
   Plane-wave valence contribution to ann.rate  (ns-1) =  2.84002320E+00
   On-site core contribution to ann.rate        (ns-1) =  2.81278903E-02
   On-site valence contribution to ann.rate     (ns-1) = -1.59822902E-03
   Plane-wave contribution to ann.rate with IPM (ns-1) =  2.85767845E+00
   Plane-wave core contrb. to ann.rate with IPM (ns-1) =  1.43446519E-02

########## Lifetime computation 2

 # Zero-positron density limit of Arponen and Pajanne provided by Boronski & Nieminen
   Ref.: Boronski and R.M. Nieminen, Phys. Rev. B 34, 3820 (1986)
 # Enhancement factor of Boronski & Nieminen IN THE RPA LIMIT
   Ref.: Boronski and R.M. Nieminen, Phys. Rev. B 34, 3820 (1986)

 Positron lifetime                         (ps)   =  2.82166584E+02
 Positron lifetime with IPM for core elec. (ps)   =  2.83424406E+02
 Annihilation rate                         (ns-1) =  3.54400577E+00
 Annihilation rate with IPM for core elec. (ns-1) =  3.52827765E+00

 Annihilation rate core/valence decomposition:
   Core    contribution to ann.rate          (ns-1) =  5.92324347E-02
   Valence contribution to ann.rate          (ns-1) =  3.48477333E+00
   Core    contribution to ann.rate with IPM (ns-1) =  4.11957068E-02
   Valence contribution to ann.rate with IPM (ns-1) =  3.48708195E+00

 Annihilation rate PAW decomposition:
   Plane-wave contribution to ann.rate          (ns-1) =  3.51747738E+00
   Plane-wave valence contribution to ann.rate  (ns-1) =  3.48637155E+00
   On-site core contribution to ann.rate        (ns-1) =  2.81266037E-02
   On-site valence contribution to ann.rate     (ns-1) = -1.59821579E-03
   Plane-wave contribution to ann.rate with IPM (ns-1) =  3.50398019E+00
   Plane-wave core contrb. to ann.rate with IPM (ns-1) =  1.43446519E-02

      (*) IPM=Independent particle Model


---OUTPUT-----------------------------------------------------------------------

 Cartesian coordinates (xcart) [bohr]
  4.42246219833268E-02  4.42246219833268E-02  4.42246219833268E-02
  5.08638180985630E+00  5.08638180985630E+00  4.42246219833268E-02
  5.08638180985630E+00  4.42246219833268E-02  5.08638180985630E+00
  4.42246219833268E-02  5.08638180985630E+00  5.08638180985630E+00
  1.00012314517599E+01  5.39058784375896E+00  5.39058784375896E+00
  5.39058784375896E+00  1.00012314517599E+01  5.39058784375896E+00
  5.39058784375896E+00  5.39058784375896E+00  1.00012314517599E+01
  1.00012314517599E+01  1.00012314517599E+01  1.00012314517599E+01
  2.56530321591981E+00  2.56530321591981E+00  2.56530321591981E+00
  7.69590964775945E+00  7.69590964775945E+00  2.42847616622062E+00
  7.69590964775945E+00  2.42847616622062E+00  7.69590964775945E+00
  2.42847616622062E+00  7.69590964775945E+00  7.69590964775945E+00
  1.29633431292983E+01  7.69590964775945E+00  7.69590964775945E+00
  7.69590964775945E+00  1.29633431292983E+01  7.69590964775945E+00
  7.69590964775945E+00  7.69590964775945E+00  1.29633431292983E+01
 Reduced coordinates (xred)
  2.15494126137198E-03  2.15494126137199E-03  2.15494126137198E-03
  2.15494126137197E-03  2.15494126137200E-03  4.93535176215884E-01
  2.15494126137200E-03  4.93535176215884E-01  2.15494126137197E-03
  4.93535176215884E-01  2.15494126137200E-03  2.15494126137197E-03
  3.80044857328068E-02  4.87331838089065E-01  4.87331838089065E-01
  4.87331838089065E-01  3.80044857328068E-02  4.87331838089065E-01
  4.87331838089065E-01  4.87331838089065E-01  3.80044857328068E-02
  4.87331838089065E-01  4.87331838089065E-01  4.87331838089065E-01
  1.25000000000000E-01  1.25000000000000E-01  1.25000000000000E-01
  1.18332803270093E-01  1.18332803270093E-01  6.31667196729908E-01
  1.18332803270093E-01  6.31667196729908E-01  1.18332803270093E-01
  6.31667196729908E-01  1.18332803270093E-01  1.18332803270093E-01
  1.18332803270094E-01  6.31667196729907E-01  6.31667196729908E-01
  6.31667196729908E-01  1.18332803270094E-01  6.31667196729908E-01
  6.31667196729908E-01  6.31667196729908E-01  1.18332803270093E-01
 Cartesian forces (fcart) [Ha/bohr]; max,rms= 6.29971E-03 3.54623E-03 (free atoms)
 -4.62934066490558E-03 -4.62934066490558E-03 -4.62934066490558E-03
  4.62934066490558E-03  4.62934066490558E-03 -4.62934066490558E-03
[...]
    4     -0.19847378708407     0.19847378708407     0.19847378708407
    5     -0.10727348831631     0.10727348831631     0.10727348831631
    6      0.10727348831631    -0.10727348831631     0.10727348831631
    7      0.10727348831631     0.10727348831631    -0.10727348831631
    8     -0.10727348831631    -0.10727348831631    -0.10727348831631
    9     -0.00000000000000    -0.00000000000000     0.00000000000000
   10      0.00000000000000    -0.00000000000000     0.28205258419794
   11     -0.00000000000000     0.28205258419794     0.00000000000000
   12      0.28205258419794    -0.00000000000000     0.00000000000000
   13     -0.28205258419794     0.00000000000000    -0.00000000000000
   14     -0.00000000000000    -0.28205258419794     0.00000000000000
   15     -0.00000000000000     0.00000000000000    -0.28205258419794
 frms,max,avg= 1.5550029E-01 2.8205258E-01   0.000E+00  0.000E+00  0.000E+00 e/A
 length scales= 10.261212863679 10.261212863679 10.261212863679 bohr
              =  5.430000000000  5.430000000000  5.430000000000 angstroms
 Fermi (or HOMO) energy (hartree) =   0.19355   Average Vxc (hartree)=  -0.34822
 Eigenvalues (hartree) for nkpt=   3  k points:
 kpt#   1, nband= 36, wtk=  0.12500, kpt=  0.0000  0.0000  0.0000 (reduced coord)
  -0.26395   -0.18263   -0.18263   -0.18263   -0.16672   -0.11734   -0.11734   -0.11269
  -0.11269   -0.11269   -0.10134   -0.06825   -0.06825   -0.06825    0.05258    0.06972
   0.06972    0.06972    0.07682    0.07682    0.07682    0.11776    0.11776    0.13241
   0.13241    0.13241    0.14893    0.14893    0.14893    0.19355    0.20126    0.20126
   0.20126    0.21031    0.21031    0.22811
 prteigrs : prtvol=0 or 1, do not print more k-points.


--- !EnergyTerms
iteration_state     : {dtset: 1, itime: 4, icycle: 1, }
comment             : Components of total free energy in Hartree
kinetic             :  2.23975072398116E+01
hartree             :  5.69810307260337E+00
xc                  : -3.56597897972438E+01
Ewald energy        : -5.92941197244754E+01
psp_core            :  1.63269193948263E+00
local_psp           : -2.25173640957679E+01
PAW spherical_terms :  2.76487948237449E+01
electronic          : -6.00941765418446E+01
positronic          : -8.59002617192753E-01
electron_positron_interaction:  3.39513364579319E-01
total_energy        : -6.06136657944581E+01
total_energy_eV     : -1.64938187171781E+03
...


--- !EnergyTermsDC
iteration_state     : {dtset: 1, itime: 4, icycle: 1, }
comment             : '"Double-counting" decomposition of free energy'
band_energy         : -7.02159651323505E-01
Ewald energy        : -5.92941197244754E+01
psp_core            :  1.63269193948263E+00
xc_dc               : -1.56070273619856E+01
PAW spherical_terms :  1.44587063964445E+01
electron_positron_dc: -5.82261309248151E-01
electronic          : -6.00941697111056E+01
positronic          : -8.59002617192753E-01
electron_positron_interaction:  3.39513364579319E-01
total_energy_dc     : -6.06136589637190E+01
total_energy_dc_eV  : -1.64938168584393E+03
...


--- !EnergyTermsWithPAWCore
iteration_state     : {dtset: 1, itime: 4, icycle: 1, }
comment             : 'Components of total free energy, including PAW core contributions'
Total energy        : -4.33591908682695E+03
Total energy DC     : -4.33591907999621E+03
Total energy (eV)   : -1.17986369002969E+05
Total energy DC (eV): -1.17986368817096E+05
...

 rms coord change=  1.2384E-02   atom, delta coord (reduced):
     1        0.001954592057      0.001954592057      0.001954592057
     2        0.001954592057      0.001954592057     -0.005863776171
     3        0.001954592057     -0.005863776171      0.001954592057
     4       -0.005863776171      0.001954592057      0.001954592057
     5        0.038786045319     -0.012928681773     -0.012928681773
     6       -0.012928681773      0.038786045319     -0.012928681773
     7       -0.012928681773     -0.012928681773      0.038786045319
     8       -0.012928681773     -0.012928681773     -0.012928681773
     9        0.000000000000      0.000000000000      0.000000000000
    10       -0.006438199503     -0.006438199503      0.006438199503
    11       -0.006438199503      0.006438199503     -0.006438199503
    12        0.006438199503     -0.006438199503     -0.006438199503
    13       -0.006438199503      0.006438199503      0.006438199503
    14        0.006438199503     -0.006438199503      0.006438199503
    15        0.006438199503      0.006438199503     -0.006438199503

== END DATASET(S) ==============================================================
================================================================================
  
 -outvars: echo values of variables after computation  --------
            acell      1.0261212864E+01  1.0261212864E+01  1.0261212864E+01 Bohr
              amu      2.80855000E+01
          chkprim           0
             ecut      8.00000000E+00 Hartree
           etotal     -6.0613658964E+01
            fcart     -3.8597006439E-03 -3.8597006439E-03 -3.8597006439E-03
                       3.8597006439E-03  3.8597006439E-03 -3.8597006439E-03
                       3.8597006439E-03 -3.8597006439E-03  3.8597006439E-03
                      -3.8597006439E-03  3.8597006439E-03  3.8597006439E-03
                      -2.0861372074E-03  2.0861372074E-03  2.0861372074E-03
                       2.0861372074E-03 -2.0861372074E-03  2.0861372074E-03
                       2.0861372074E-03  2.0861372074E-03 -2.0861372074E-03
                      -2.0861372074E-03 -2.0861372074E-03 -2.0861372074E-03
                      -1.1803211410E-20 -1.4752146782E-19  5.7824110828E-20
                       4.6702515819E-20 -2.0602719840E-19  5.4850494710E-03
                      -1.8900528600E-20  5.4850494710E-03  6.4921431377E-20
                       5.4850494710E-03 -3.0159531230E-19  2.1189795867E-19
                      -5.4850494710E-03  6.5523733126E-21 -9.6249726941E-20
                      -1.9584212538E-19 -5.4850494710E-03  2.4186302815E-19
                      -5.1807784245E-19  3.3057709695E-19 -5.4850494710E-03
-          fftalg         512
           ionmov           2
           istwfk        2    3    7
              ixc       -1012
              kpt      0.00000000E+00  0.00000000E+00  0.00000000E+00
                       5.00000000E-01  0.00000000E+00  0.00000000E+00
                       5.00000000E-01  5.00000000E-01  0.00000000E+00
         kptrlatt        2    0    0      0    2    0      0    0    2
          kptrlen      2.90230928E+01
P           mkmem           3
            natom          15
            nband          36
            ngfft          40      40      40
          ngfftdg          54      54      54
             nkpt           3
            nstep         500
             nsym          24
            ntime           4
           ntypat           1
              occ      2.000000  2.000000  2.000000  2.000000  2.000000  2.000000
                       2.000000  2.000000  2.000000  2.000000  2.000000  2.000000
                       2.000000  2.000000  2.000000  2.000000  2.000000  2.000000
                       2.000000  2.000000  2.000000  2.000000  2.000000  2.000000
                       2.000000  2.000000  2.000000  2.000000  2.000000  2.000000
                       0.000000  0.000000  0.000000  0.000000  0.000000  0.000000
        optforces           1
        optstress           0
        pawecutdg      1.50000000E+01 Hartree
         positron         -10
         posnstep       20
        postoldfe      1.00000000E-05 Hartree
           prtden           0
           prteig           0
            prtwf           0
            rprim      0.0000000000E+00  1.0000000000E+00  1.0000000000E+00
                       1.0000000000E+00  0.0000000000E+00  1.0000000000E+00
                       1.0000000000E+00  1.0000000000E+00  0.0000000000E+00
          spgroup         216
           strten      9.9999999999E+99  9.9999999999E+99  9.9999999999E+99
                       9.9999999999E+99  9.9999999999E+99  9.9999999999E+99
           symrel      1  0  0   0  1  0   0  0  1       0 -1  1   0 -1  0   1 -1  0
                      -1  0  0  -1  0  1  -1  1  0       0  1 -1   1  0 -1   0  0 -1
                      -1  0  0  -1  1  0  -1  0  1       0 -1  1   1 -1  0   0 -1  0
                       1  0  0   0  0  1   0  1  0       0  1 -1   0  0 -1   1  0 -1
                      -1  0  1  -1  1  0  -1  0  0       0 -1  0   1 -1  0   0 -1  1
                       1  0 -1   0  0 -1   0  1 -1       0  1  0   0  0  1   1  0  0
                       1  0 -1   0  1 -1   0  0 -1       0 -1  0   0 -1  1   1 -1  0
                      -1  0  1  -1  0  0  -1  1  0       0  1  0   1  0  0   0  0  1
                       0  0 -1   0  1 -1   1  0 -1       1 -1  0   0 -1  1   0 -1  0
                       0  0  1   1  0  0   0  1  0      -1  1  0  -1  0  0  -1  0  1
                       0  0  1   0  1  0   1  0  0       1 -1  0   0 -1  0   0 -1  1
                       0  0 -1   1  0 -1   0  1 -1      -1  1  0  -1  0  1  -1  0  0
            tnons      0.0000000  0.0000000  0.0000000     0.0000000  0.5000000 -0.0000000
                       0.5000000  0.0000000 -0.0000000    -0.0000000  0.0000000  0.5000000
                       0.5000000  0.0000000 -0.0000000     0.0000000  0.5000000 -0.0000000
                       0.0000000  0.0000000  0.0000000    -0.0000000  0.0000000  0.5000000
                       0.5000000  0.0000000 -0.0000000     0.0000000  0.5000000 -0.0000000
                      -0.0000000  0.0000000  0.5000000     0.0000000  0.0000000  0.0000000
                      -0.0000000  0.0000000  0.5000000     0.0000000  0.5000000 -0.0000000
                       0.5000000  0.0000000 -0.0000000     0.0000000  0.0000000  0.0000000
                      -0.0000000  0.0000000  0.5000000     0.0000000  0.5000000 -0.0000000
                       0.0000000  0.0000000  0.0000000     0.5000000  0.0000000 -0.0000000
                       0.0000000  0.0000000  0.0000000     0.0000000  0.5000000 -0.0000000
                      -0.0000000  0.0000000  0.5000000     0.5000000  0.0000000 -0.0000000
           toldfe      1.00000000E-08 Hartree
            typat      1  1  1  1  1  1  1  1  1  1  1  1  1  1  1
           useylm           1
              wtk        0.12500    0.50000    0.37500
           xangst      2.1226869741E-02  2.1226869741E-02  2.1226869741E-02
                       2.6937731303E+00  2.6937731303E+00  2.1226869741E-02
                       2.6937731303E+00  2.1226869741E-02  2.6937731303E+00
                       2.1226869741E-02  2.6937731303E+00  2.6937731303E+00
                       5.2895945159E+00  2.8554054841E+00  2.8554054841E+00
                       2.8554054841E+00  5.2895945159E+00  2.8554054841E+00
                       2.8554054841E+00  2.8554054841E+00  5.2895945159E+00
                       5.2895945159E+00  5.2895945159E+00  5.2895945159E+00
                       1.3575000000E+00  1.3575000000E+00  1.3575000000E+00
                       4.0725000000E+00  4.0725000000E+00  1.2875811534E+00
                       4.0725000000E+00  1.2875811534E+00  4.0725000000E+00
                       1.2875811534E+00  4.0725000000E+00  4.0725000000E+00
                       6.8574188466E+00  4.0725000000E+00  4.0725000000E+00
                       4.0725000000E+00  6.8574188466E+00  4.0725000000E+00
                       4.0725000000E+00  4.0725000000E+00  6.8574188466E+00
            xcart      4.0112970320E-02  4.0112970320E-02  4.0112970320E-02
                       5.0904934615E+00  5.0904934615E+00  4.0112970320E-02
                       5.0904934615E+00  4.0112970320E-02  5.0904934615E+00
                       4.0112970320E-02  5.0904934615E+00  5.0904934615E+00
                       9.9958849522E+00  5.3959343433E+00  5.3959343433E+00
                       5.3959343433E+00  9.9958849522E+00  5.3959343433E+00
                       5.3959343433E+00  5.3959343433E+00  9.9958849522E+00
                       9.9958849522E+00  9.9958849522E+00  9.9958849522E+00
                       2.5653032159E+00  2.5653032159E+00  2.5653032159E+00
                       7.6959096478E+00  7.6959096478E+00  2.4331757448E+00
                       7.6959096478E+00  2.4331757448E+00  7.6959096478E+00
                       2.4331757448E+00  7.6959096478E+00  7.6959096478E+00
                       1.2958643551E+01  7.6959096478E+00  7.6959096478E+00
                       7.6959096478E+00  1.2958643551E+01  7.6959096478E+00
                       7.6959096478E+00  7.6959096478E+00  1.2958643551E+01
             xred      1.9545920571E-03  1.9545920571E-03  1.9545920571E-03
                       1.9545920571E-03  1.9545920571E-03  4.9413622383E-01
                       1.9545920571E-03  4.9413622383E-01  1.9545920571E-03
                       4.9413622383E-01  1.9545920571E-03  1.9545920571E-03
                       3.8786045319E-02  4.8707131823E-01  4.8707131823E-01
                       4.8707131823E-01  3.8786045319E-02  4.8707131823E-01
                       4.8707131823E-01  4.8707131823E-01  3.8786045319E-02
                       4.8707131823E-01  4.8707131823E-01  4.8707131823E-01
                       1.2500000000E-01  1.2500000000E-01  1.2500000000E-01
                       1.1856180050E-01  1.1856180050E-01  6.3143819950E-01
                       1.1856180050E-01  6.3143819950E-01  1.1856180050E-01
                       6.3143819950E-01  1.1856180050E-01  1.1856180050E-01
                       1.1856180050E-01  6.3143819950E-01  6.3143819950E-01
                       6.3143819950E-01  1.1856180050E-01  6.3143819950E-01
                       6.3143819950E-01  6.3143819950E-01  1.1856180050E-01
            znucl       14.00000

================================================================================


- Timing analysis has been suppressed with timopt=0



================================================================================

 Suggested references for the acknowledgment of ABINIT usage.

 The users of ABINIT have little formal obligations with respect to the ABINIT group
 (those specified in the GNU General Public License, http://www.gnu.org/copyleft/gpl.txt).
 However, it is common practice in the scientific literature,
 to acknowledge the efforts of people that have made the research possible.
 In this spirit, please find below suggested citations of work written by ABINIT developers,
 corresponding to implementations inside of ABINIT that you have used in the present run.
 Note also that it will be of great value to readers of publications presenting these results,
 to read papers enabling them to understand the theoretical formalism and details
 of the ABINIT implementation.
 For information on why they are suggested, see also https://docs.abinit.org/theory/acknowledgments.
-
- [1] Two-component density functional theory within the projector augmented-wave approach:
- Accurate and self-consistent computations of positron lifetimes and momentum distributions
- J. Wiktor, G. Jomard and M. Torrent, Phys. Rev. B 92, 125113 (2015).
- Comment: to be cited in case the computation of electron-positron annihilation properties within the 2-component DFT, i.e. positron/=0.
- Strong suggestion to cite this paper.
- DOI and bibtex: see https://docs.abinit.org/theory/bibliography/#wiktor2015
-
- [2] Implementation of the Projector Augmented-Wave Method in the ABINIT code.
- M. Torrent, F. Jollet, F. Bottin, G. Zerah, and X. Gonze Comput. Mat. Science 42, 337, (2008).
- Comment: PAW calculations. Strong suggestion to cite this paper.
- DOI and bibtex: see https://docs.abinit.org/theory/bibliography/#torrent2008
-
- [3] Libxc: A library of exchange and correlation functionals for density functional theory.
- M.A.L. Marques, M.J.T. Oliveira, T. Burnus, Computer Physics Communications 183, 2227 (2012).
- Comment: to be cited when LibXC is used (negative value of ixc)
- Strong suggestion to cite this paper.
- DOI and bibtex: see https://docs.abinit.org/theory/bibliography/#marques2012
-
- [4] Abinit 2025: New Capabilities for the Predictive Modeling of Solids and Nanomaterials.
- J. Chem. Phys. 163, 164126 (2025).
- M.J. Verstraete, J. Abreu, G. Allemand, B. Amadon, G. Antonius,
- M. Azizi, L. Baguet, C. Barat, L. Bastogne, R. Bejaud, J.-M. Beuken,
- J. Bieder, A. Blanchet, F. Bottin, J. Bouchet, J. Bouquiaux, E. Bousquet,
- J. Boust, F. Brieuc, V. Brousseau-Couture, N. Brouwer, F. Bruneval,
- A. Castellano, E. Castiel, J.-B. Charraud, J. Clerouin, M. Cote, C. Duval,
- A. Gallo, F. Gendron, G. Geneste, Ph. Ghosez, M. Giantomassi, O. Gingras,
- F. Gomez-Ortiz, X. Gonze, F. Goudreault, A. Gruneis, R. Gupta, B. Guster,
- D.R. Hamann, Xu He, O. Hellman, N. Holzwarth, F. Jollet, P. Kestener,
- I.-M. Lygatsika, O. Nadeau, L. MacEnulty, E. Mara
- Comment: the sixth generic paper describing the ABINIT project.
- Note that a version of this paper, that is not formatted for J. Chem. Phys. 
- is available at
- https://github.com/abinit/abinit_assets/tree/main/abinit_package/papers/ABINIT25.pdf .
- The licence allows the authors to put it on the Web.
- DOI and bibtex: see https://docs.abinit.org/theory/bibliography/#verstraete2025
-
- [5] The Abinit project: Impact, environment and recent developments.
- Computer Phys. Comm. 248, 107042 (2020).
- X.Gonze, B. Amadon, G. Antonius, F.Arnardi, L.Baguet, J.-M.Beuken,
- J.Bieder, F.Bottin, J.Bouchet, E.Bousquet, N.Brouwer, F.Bruneval,
- G.Brunin, T.Cavignac, J.-B. Charraud, Wei Chen, M.Cote, S.Cottenier,
- J.Denier, G.Geneste, Ph.Ghosez, M.Giantomassi, Y.Gillet, O.Gingras,
- D.R.Hamann, G.Hautier, Xu He, N.Helbig, N.Holzwarth, Y.Jia, F.Jollet,
- W.Lafargue-Dit-Hauret, K.Lejaeghere, M.A.L.Marques, A.Martin, C.Martins,
- H.P.C. Miranda, F.Naccarato, K. Persson, G.Petretto, V.Planes, Y.Pouillon,
- S.Prokhorenko, F.Ricci, G.-M.Rignanese, A.H.Romero, M.M.Schmitt, M.Torrent,
- M.J.van Setten, B.Van Troeye, M.J.Verstraete, G.Zerah and J.W.Zwanzig
- Comment: the fifth generic paper describing the ABINIT project.
- Note that a version of this paper, that is not formatted for Computer Phys. Comm. 
- is available at
- https://github.com/abinit/abinit_assets/tree/main/abinit_package/papers/ABINIT20.pdf .
- The licence allows the authors to put it on the Web.
- DOI and bibtex: see https://docs.abinit.org/theory/bibliography/#gonze2020
-
- [6] The Abinit project: Impact, environment and recent developments.
- Computer Phys. Comm. 248, 107042 (2020).
- X.Gonze, B. Amadon, G. Antonius, F.Arnardi, L.Baguet, J.-M.Beuken,
- J.Bieder, F.Bottin, J.Bouchet, E.Bousquet, N.Brouwer, F.Bruneval,
- G.Brunin, T.Cavignac, J.-B. Charraud, Wei Chen, M.Cote, S.Cottenier,
- J.Denier, G.Geneste, Ph.Ghosez, M.Giantomassi, Y.Gillet, O.Gingras,
- D.R.Hamann, G.Hautier, Xu He, N.Helbig, N.Holzwarth, Y.Jia, F.Jollet,
- W.Lafargue-Dit-Hauret, K.Lejaeghere, M.A.L.Marques, A.Martin, C.Martins,
- H.P.C. Miranda, F.Naccarato, K. Persson, G.Petretto, V.Planes, Y.Pouillon,
- S.Prokhorenko, F.Ricci, G.-M.Rignanese, A.H.Romero, M.M.Schmitt, M.Torrent,
- M.J.van Setten, B.Van Troeye, M.J.Verstraete, G.Zerah and J.W.Zwanzig
- Comment: a global overview of ABINIT, with focus on selected capabilities .
- Note that a version of this paper, that is not formatted for J. Chem. Phys. 
- is available at
-  https://github.com/abinit/abinit_assets/tree/main/abinit_package/papers/ABINIT20_JPC.pdf .
- The licence allows the authors to put it on the Web.
- DOI and bibtex: see https://docs.abinit.org/theory/bibliography/#romero2020
-
- Proc.   0 individual time (sec): cpu=        189.1  wall=        189.2

================================================================================

 Calculation completed.
.Delivered 517 WARNINGs and  44 COMMENTs to log file.
+Overall time at end (sec) : cpu=        189.1  wall=        189.2
