
.Version 9.0.0 of ABINIT 
.(MPI version, prepared for a x86_64_linux_gnu9.2 computer) 

.Copyright (C) 1998-2020 ABINIT group . 
 ABINIT comes with ABSOLUTELY NO WARRANTY.
 It is free software, and you are welcome to redistribute it
 under certain conditions (GNU General Public License,
 see ~abinit/COPYING or http://www.gnu.org/copyleft/gpl.txt).

 ABINIT is a project of the Universite Catholique de Louvain,
 Corning Inc. and other collaborators, see ~abinit/doc/developers/contributors.txt .
 Please read https://docs.abinit.org/theory/acknowledgments for suggested
 acknowledgments of the ABINIT effort.
 For more information, see https://www.abinit.org .

.Starting date : Mon 10 Feb 2020.
- ( at 02h07 )
  
- input  file    -> /home/gmatteo/git_repos/abinit/_abiref_gnu9.2_openmpi/tests/Test_suite/tutorial_tudet_1-tudet_2-tudet_3/tudet_2.in
- output file    -> tudet_2.out
- root for input  files -> tudet_1o
- root for output files -> tudet_2o


 Symmetries : space group Pm -3 m (#221); Bravais cP (primitive cubic)
================================================================================
 Values of the parameters that define the memory need of the present run
     intxc =       0    ionmov =       0      iscf =      17    lmnmax =      18
     lnmax =       6     mgfft =      15  mpssoang =       3    mqgrid =    3001
     natom =       2  nloc_mem =       2    nspden =       2   nspinor =       1
    nsppol =       2      nsym =      48    n1xccc =       1    ntypat =       1
    occopt =       4   xclevel =       2
-    mband =          25        mffmem =           1         mkmem =           4
       mpw =         178          nfft =        3375          nkpt =           4
 PAW method is used; the additional fine FFT grid is defined by:
   mgfftf=        32    nfftf =     32768
================================================================================
P This job should need less than                      18.785 Mbytes of memory.
  Rough estimation (10% accuracy) of disk space for files :
_ WF disk file :      0.545 Mbytes ; DEN or POT disk file :      0.502 Mbytes.
================================================================================

--------------------------------------------------------------------------------
------------- Echo of variables that govern the present computation ------------
--------------------------------------------------------------------------------
-
- outvars: echo of selected default values                                      
-   iomode0 =  0 , fftalg0 =312 , wfoptalg0 = 10
-
- outvars: echo of global parameters not present in the input file              
-  max_nthreads =    0
-
 -outvars: echo values of preprocessed input variables --------
            acell      5.4200000000E+00  5.4200000000E+00  5.4200000000E+00 Bohr
              amu      5.58470000E+01
         atvshift        0.00367    0.00367    0.00367    0.00367    0.00367
                         0.00367    0.00367    0.00367    0.00367    0.00367
                         0.00000    0.00000    0.00000    0.00000    0.00000
                         0.00000    0.00000    0.00000    0.00000    0.00000
           diemix      4.50000000E-01
        dmatpuopt           3
             ecut      8.00000000E+00 Hartree
-          fftalg         312
           irdwfk           1
           istwfk        0    0    0    9
              ixc          11
              kpt      1.66666667E-01  1.66666667E-01  1.66666667E-01
                       5.00000000E-01  1.66666667E-01  1.66666667E-01
                       5.00000000E-01  5.00000000E-01  1.66666667E-01
                       5.00000000E-01  5.00000000E-01  5.00000000E-01
         kptrlatt        3    0    0      0    3    0      0    0    3
          kptrlen      1.62600000E+01
            lpawu           2
         macro_uj        1
P           mkmem           4
            natom           2
            nband          25
        natvshift        5
            ngfft          15      15      15
          ngfftdg          32      32      32
             nkpt           4
           nspden           2
           nsppol           2
             nsym          48
           ntypat           1
              occ      1.000000  1.000000  1.000000  1.000000  1.000000  1.000000
                       1.000000  1.000000  1.000000  1.000000  1.000000  1.000000
                       1.000000  1.000000  1.000000  1.000000  0.000000  0.000000
                       0.000000  0.000000  0.000000  0.000000  0.000000  0.000000
                       0.000000
                       1.000000  1.000000  1.000000  1.000000  1.000000  1.000000
                       1.000000  1.000000  1.000000  1.000000  1.000000  1.000000
                       1.000000  1.000000  1.000000  1.000000  0.000000  0.000000
                       0.000000  0.000000  0.000000  0.000000  0.000000  0.000000
                       0.000000
                       1.000000  1.000000  1.000000  1.000000  1.000000  1.000000
                       1.000000  1.000000  1.000000  1.000000  1.000000  1.000000
                       1.000000  1.000000  1.000000  1.000000  0.000000  0.000000
                       0.000000  0.000000  0.000000  0.000000  0.000000  0.000000
                       0.000000
                       1.000000  1.000000  1.000000  1.000000  1.000000  1.000000
                       1.000000  1.000000  1.000000  1.000000  1.000000  1.000000
                       1.000000  1.000000  1.000000  1.000000  0.000000  0.000000
                       0.000000  0.000000  0.000000  0.000000  0.000000  0.000000
                       0.000000
                       1.000000  1.000000  1.000000  1.000000  1.000000  1.000000
                       1.000000  1.000000  1.000000  1.000000  1.000000  1.000000
                       1.000000  1.000000  1.000000  1.000000  0.000000  0.000000
                       0.000000  0.000000  0.000000  0.000000  0.000000  0.000000
                       0.000000
                       1.000000  1.000000  1.000000  1.000000  1.000000  1.000000
                       1.000000  1.000000  1.000000  1.000000  1.000000  1.000000
                       1.000000  1.000000  1.000000  1.000000  0.000000  0.000000
                       0.000000  0.000000  0.000000  0.000000  0.000000  0.000000
                       0.000000
                       1.000000  1.000000  1.000000  1.000000  1.000000  1.000000
                       1.000000  1.000000  1.000000  1.000000  1.000000  1.000000
                       1.000000  1.000000  1.000000  1.000000  0.000000  0.000000
                       0.000000  0.000000  0.000000  0.000000  0.000000  0.000000
                       0.000000
                       1.000000  1.000000  1.000000  1.000000  1.000000  1.000000
                       1.000000  1.000000  1.000000  1.000000  1.000000  1.000000
                       1.000000  1.000000  1.000000  1.000000  0.000000  0.000000
                       0.000000  0.000000  0.000000  0.000000  0.000000  0.000000
                       0.000000
           occopt           4
        pawecutdg      4.00000000E+01 Hartree
         pawujrad      2.6686600000E+00 Bohr
           prtden           0
           prteig           0
            prtwf           0
           shiftk      5.00000000E-01  5.00000000E-01  5.00000000E-01
          spgroup         221
           symrel      1  0  0   0  1  0   0  0  1      -1  0  0   0 -1  0   0  0 -1
                      -1  0  0   0  1  0   0  0 -1       1  0  0   0 -1  0   0  0  1
                      -1  0  0   0 -1  0   0  0  1       1  0  0   0  1  0   0  0 -1
                       1  0  0   0 -1  0   0  0 -1      -1  0  0   0  1  0   0  0  1
                       0  1  0   1  0  0   0  0  1       0 -1  0  -1  0  0   0  0 -1
                       0 -1  0   1  0  0   0  0 -1       0  1  0  -1  0  0   0  0  1
                       0 -1  0  -1  0  0   0  0  1       0  1  0   1  0  0   0  0 -1
                       0  1  0  -1  0  0   0  0 -1       0 -1  0   1  0  0   0  0  1
                       0  0  1   1  0  0   0  1  0       0  0 -1  -1  0  0   0 -1  0
                       0  0 -1   1  0  0   0 -1  0       0  0  1  -1  0  0   0  1  0
                       0  0 -1  -1  0  0   0  1  0       0  0  1   1  0  0   0 -1  0
                       0  0  1  -1  0  0   0 -1  0       0  0 -1   1  0  0   0  1  0
                       1  0  0   0  0  1   0  1  0      -1  0  0   0  0 -1   0 -1  0
                      -1  0  0   0  0  1   0 -1  0       1  0  0   0  0 -1   0  1  0
                      -1  0  0   0  0 -1   0  1  0       1  0  0   0  0  1   0 -1  0
                       1  0  0   0  0 -1   0 -1  0      -1  0  0   0  0  1   0  1  0
                       0  1  0   0  0  1   1  0  0       0 -1  0   0  0 -1  -1  0  0
                       0 -1  0   0  0  1  -1  0  0       0  1  0   0  0 -1   1  0  0
                       0 -1  0   0  0 -1   1  0  0       0  1  0   0  0  1  -1  0  0
                       0  1  0   0  0 -1  -1  0  0       0 -1  0   0  0  1   1  0  0
                       0  0  1   0  1  0   1  0  0       0  0 -1   0 -1  0  -1  0  0
                       0  0 -1   0  1  0  -1  0  0       0  0  1   0 -1  0   1  0  0
                       0  0 -1   0 -1  0   1  0  0       0  0  1   0  1  0  -1  0  0
                       0  0  1   0 -1  0  -1  0  0       0  0 -1   0  1  0   1  0  0
           tolvrs      1.00000000E-08
           tsmear      1.83746627E-03 Hartree
            typat      1  1
          usepawu           1
           useylm           1
              wtk        0.29630    0.44444    0.22222    0.03704
           xangst      0.0000000000E+00  0.0000000000E+00  0.0000000000E+00
                       1.4340702353E+00  1.4340702353E+00  1.4340702353E+00
            xcart      0.0000000000E+00  0.0000000000E+00  0.0000000000E+00
                       2.7100000000E+00  2.7100000000E+00  2.7100000000E+00
             xred      0.0000000000E+00  0.0000000000E+00  0.0000000000E+00
                       5.0000000000E-01  5.0000000000E-01  5.0000000000E-01
            znucl       26.00000

================================================================================

 chkinp: Checking input parameters for consistency.

================================================================================
== DATASET  1 ==================================================================
-   nproc =    1

 Exchange-correlation functional for the present dataset will be:
  GGA: Perdew-Burke-Ernzerhof functional - ixc=11
 Citation for XC functional:
  J.P.Perdew, K.Burke, M.Ernzerhof, PRL 77, 3865 (1996)

 Real(R)+Recip(G) space primitive vectors, cartesian coordinates (Bohr,Bohr^-1):
 R(1)=  5.4200000  0.0000000  0.0000000  G(1)=  0.1845018  0.0000000  0.0000000
 R(2)=  0.0000000  5.4200000  0.0000000  G(2)=  0.0000000  0.1845018  0.0000000
 R(3)=  0.0000000  0.0000000  5.4200000  G(3)=  0.0000000  0.0000000  0.1845018
 Unit cell volume ucvol=  1.5922009E+02 bohr^3
 Angles (23,13,12)=  9.00000000E+01  9.00000000E+01  9.00000000E+01 degrees

 Coarse grid specifications (used for wave-functions):

 getcut: wavevector=  0.0000  0.0000  0.0000  ngfft=  15  15  15
         ecut(hartree)=      8.000   => boxcut(ratio)=   2.02870

 Fine grid specifications (used for densities):

 getcut: wavevector=  0.0000  0.0000  0.0000  ngfft=  32  32  32
         ecut(hartree)=     40.000   => boxcut(ratio)=   2.07375

--- Pseudopotential description ------------------------------------------------
- pspini: atom type   1  psp file is /home/gmatteo/git_repos/abinit/tests/Psps_for_tests/26fe.paw
- pspatm: opening atomic psp file    /home/gmatteo/git_repos/abinit/tests/Psps_for_tests/26fe.paw
- iron - PAW data extracted from US-psp (D.Vanderbilt) - generated by USpp2Abinit v2.2.1
- 26.00000  16.00000  20070813                znucl, zion, pspdat
    7   11    2    0       594   0.00000      pspcod,pspxc,lmax,lloc,mmax,r2well
 Pseudopotential format is: paw3
 basis_size (lnmax)=  6 (lmn_size= 18), orbitals=   0   0   1   1   2   2
 Spheres core radius: rc_sph= 2.02984247
 3 radial meshes are used:
  - mesh 1: r(i)=AA*[exp(BB*(i-1))-1], size= 594 , AA= 0.95337E-04 BB= 0.16949E-01
  - mesh 2: r(i)=AA*[exp(BB*(i-1))-1], size= 590 , AA= 0.95337E-04 BB= 0.16949E-01
  - mesh 3: r(i)=AA*[exp(BB*(i-1))-1], size= 683 , AA= 0.95337E-04 BB= 0.16949E-01
 Shapefunction is BESSEL type: shapef(r,l)=aa(1,l)*jl(q(1,l)*r)+aa(2,l)*jl(q(2,l)*r)
 Radius for shape functions = sphere core radius
 Radial grid used for partial waves is grid 1
 Radial grid used for projectors is grid  2
 Radial grid used for (t)core density is grid 1
 Radial grid used for Vloc is grid 3
 Compensation charge density is taken into account in XC energy/potential
 pspatm: atomic psp has been read  and splines computed

   2.32160999E+03                                ecore*ucvol(ha*bohr**3)
--------------------------------------------------------------------------------

-inwffil : will read wavefunctions from disk file tudet_1o_WFK
_setup2: Arith. and geom. avg. npw (full set) are     173.333     173.266


 ******************************************
 LDA+U Method used: FLL
 ******************************************

================================================================================

     iter   Etot(hartree)     deltaE(h) residm    nres2    magn
 ETOT  1  -248.64724996139    -2.49E+02 7.59E-07 1.03E-01 4.593
 ETOT  2  -248.64938112186    -2.13E-03 8.53E-05 2.26E+00 4.593
 ETOT  3  -248.64713317665     2.25E-03 5.34E-04 2.83E-03 4.593
 ETOT  4  -248.64714453025    -1.14E-05 6.89E-06 3.38E-03 4.593
 ETOT  5  -248.64714116498     3.37E-06 1.94E-06 1.33E-04 4.593
 ETOT  6  -248.64714123648    -7.15E-08 8.99E-07 2.44E-05 4.593
 ETOT  7  -248.64714126498    -2.85E-08 4.12E-07 6.68E-06 4.593
 ETOT  8  -248.64714125817     6.81E-09 3.73E-07 4.38E-07 4.593
 ETOT  9  -248.64714125836    -1.91E-10 4.08E-07 2.79E-07 4.593
 ETOT 10  -248.64714125880    -4.39E-10 3.63E-07 1.68E-08 4.593
 ETOT 11  -248.64714125875     5.32E-11 3.99E-07 2.26E-09 4.593

 At SCF step   11       nres2   =  2.26E-09 < tolvrs=  1.00E-08 =>converged.

 Cartesian components of stress tensor (hartree/bohr^3)
  sigma(1 1)=  7.34577247E-03  sigma(3 2)=  0.00000000E+00
  sigma(2 2)=  7.34577247E-03  sigma(3 1)=  0.00000000E+00
  sigma(3 3)=  7.34577247E-03  sigma(2 1)=  0.00000000E+00


--- !ResultsGS
comment   : Summary of ground state results
natom     :        2
nsppol    :        2
nspinor   :        1
nspden    :        2
nelect    :  3.200000000000000E+001
charge    :  0.000000000000000E+000
abc       : [ 9.000000000000000E+001,  9.000000000000000E+001,  9.000000000000000E+001, ]
alpha_beta_gamma_angles: [ 9.000000000000000E+001,  9.000000000000000E+001,  9.000000000000000E+001, ]
cutoff_energies: {"ecut":  8.000000000000000E+000, "pawecutdg":  4.000000000000000E+001, }
convergence: {
    "deltae":  5.320544005371630E-011, "res2":  2.258102870304025E-009, 
    "residm":  3.989134146054128E-007, "diffor": undef, 
}
etotal    : -2.486471412587462E+002
entropy   :  0.000000000000000E+000
fermie    :  2.511783593560655E-001
stress_tensor: !CartTensor
- [ 7.345772467405656E-003,  0.000000000000000E+000,  0.000000000000000E+000, ]
- [ 0.000000000000000E+000,  7.345772467405809E-003,  0.000000000000000E+000, ]
- [ 0.000000000000000E+000,  0.000000000000000E+000,  7.345772467405740E-003, ]
cartesian_forces: !CartForces
- [-0.000000000000000E+000, -0.000000000000000E+000, -0.000000000000000E+000, ]
- [-0.000000000000000E+000, -0.000000000000000E+000, -0.000000000000000E+000, ]
...

 Integrated electronic and magnetization densities in atomic spheres:
 ---------------------------------------------------------------------
 Radius=ratsph(iatom), smearing ratsm=  0.0000. Diff(up-dn)=approximate z local magnetic moment.
 Atom    Radius    up_density   dn_density  Total(up+dn)  Diff(up-dn)
    1   2.02984     8.312330     5.918983     14.231313     2.393347
    2   2.02984     8.307193     5.932883     14.240076     2.374309
 ---------------------------------------------------------------------
  Sum:             16.619523    11.851866     28.471389     4.767656
 Total magnetization (from the atomic spheres):             4.767656
 Total magnetization (exact up - dn):                       4.592591

 PAW TEST:
 ==== Compensation charge inside spheres ============
 The following values must be close to each other ...
 Compensation charge over spherical meshes =     19.149958927418449
 Compensation charge over fine fft grid    =     19.149947956322613

 ==== Results concerning PAW augmentation regions ====

 Total pseudopotential strength Dij (hartree):
 Atom #  1 - Spin component 1
  -2.53989   0.26375   0.00000   0.00000   0.00000   0.00000   0.00000   0.00000   0.00000   0.00000   0.00000   0.00000 ...
   0.26375   0.06294   0.00000   0.00000   0.00000   0.00000   0.00000   0.00000   0.00000   0.00000   0.00000   0.00000 ...
   0.00000   0.00000  -1.81920   0.00000   0.00000   0.07965   0.00000   0.00000   0.00000   0.00000   0.00000   0.00000 ...
   0.00000   0.00000   0.00000  -1.81920   0.00000   0.00000   0.07965   0.00000   0.00000   0.00000   0.00000   0.00000 ...
   0.00000   0.00000   0.00000   0.00000  -1.81920   0.00000   0.00000   0.07965   0.00000   0.00000   0.00000   0.00000 ...
   0.00000   0.00000   0.07965   0.00000   0.00000   0.01689   0.00000   0.00000   0.00000   0.00000   0.00000   0.00000 ...
   0.00000   0.00000   0.00000   0.07965   0.00000   0.00000   0.01689   0.00000   0.00000   0.00000   0.00000   0.00000 ...
   0.00000   0.00000   0.00000   0.00000   0.07965   0.00000   0.00000   0.01689   0.00000   0.00000   0.00000   0.00000 ...
   0.00000   0.00000   0.00000   0.00000   0.00000   0.00000   0.00000   0.00000  -0.22124   0.00000   0.00000   0.00000 ...
   0.00000   0.00000   0.00000   0.00000   0.00000   0.00000   0.00000   0.00000   0.00000  -0.22124   0.00000   0.00000 ...
   0.00000   0.00000   0.00000   0.00000   0.00000   0.00000   0.00000   0.00000   0.00000   0.00000  -0.22613   0.00000 ...
   0.00000   0.00000   0.00000   0.00000   0.00000   0.00000   0.00000   0.00000   0.00000   0.00000   0.00000  -0.22124 ...
   ...  only 12  components have been written...
 Atom #  1 - Spin component 2
  -2.47870   0.24934   0.00000   0.00000   0.00000   0.00000   0.00000   0.00000   0.00000   0.00000   0.00000   0.00000 ...
   0.24934   0.06373   0.00000   0.00000   0.00000   0.00000   0.00000   0.00000   0.00000   0.00000   0.00000   0.00000 ...
   0.00000   0.00000  -1.74068   0.00000   0.00000   0.07016   0.00000   0.00000   0.00000   0.00000   0.00000   0.00000 ...
   0.00000   0.00000   0.00000  -1.74068   0.00000   0.00000   0.07016   0.00000   0.00000   0.00000   0.00000   0.00000 ...
   0.00000   0.00000   0.00000   0.00000  -1.74068   0.00000   0.00000   0.07016   0.00000   0.00000   0.00000   0.00000 ...
   0.00000   0.00000   0.07016   0.00000   0.00000   0.01751   0.00000   0.00000   0.00000   0.00000   0.00000   0.00000 ...
   0.00000   0.00000   0.00000   0.07016   0.00000   0.00000   0.01751   0.00000   0.00000   0.00000   0.00000   0.00000 ...
   0.00000   0.00000   0.00000   0.00000   0.07016   0.00000   0.00000   0.01751   0.00000   0.00000   0.00000   0.00000 ...
   0.00000   0.00000   0.00000   0.00000   0.00000   0.00000   0.00000   0.00000  -0.16379   0.00000   0.00000   0.00000 ...
   0.00000   0.00000   0.00000   0.00000   0.00000   0.00000   0.00000   0.00000   0.00000  -0.16379   0.00000   0.00000 ...
   0.00000   0.00000   0.00000   0.00000   0.00000   0.00000   0.00000   0.00000   0.00000   0.00000  -0.15969   0.00000 ...
   0.00000   0.00000   0.00000   0.00000   0.00000   0.00000   0.00000   0.00000   0.00000   0.00000   0.00000  -0.16379 ...
   ...  only 12  components have been written...
 Atom #  2 - Spin component 1
  -2.53717   0.26311   0.00000   0.00000   0.00000   0.00000   0.00000   0.00000   0.00000   0.00000   0.00000   0.00000 ...
   0.26311   0.06302   0.00000   0.00000   0.00000   0.00000   0.00000   0.00000   0.00000   0.00000   0.00000   0.00000 ...
   0.00000   0.00000  -1.81575   0.00000   0.00000   0.07923   0.00000   0.00000   0.00000   0.00000   0.00000   0.00000 ...
   0.00000   0.00000   0.00000  -1.81575   0.00000   0.00000   0.07923   0.00000   0.00000   0.00000   0.00000   0.00000 ...
   0.00000   0.00000   0.00000   0.00000  -1.81575   0.00000   0.00000   0.07923   0.00000   0.00000   0.00000   0.00000 ...
   0.00000   0.00000   0.07923   0.00000   0.00000   0.01693   0.00000   0.00000   0.00000   0.00000   0.00000   0.00000 ...
   0.00000   0.00000   0.00000   0.07923   0.00000   0.00000   0.01693   0.00000   0.00000   0.00000   0.00000   0.00000 ...
   0.00000   0.00000   0.00000   0.00000   0.07923   0.00000   0.00000   0.01693   0.00000   0.00000   0.00000   0.00000 ...
   0.00000   0.00000   0.00000   0.00000   0.00000   0.00000   0.00000   0.00000  -0.22175   0.00000   0.00000   0.00000 ...
   0.00000   0.00000   0.00000   0.00000   0.00000   0.00000   0.00000   0.00000   0.00000  -0.22175   0.00000   0.00000 ...
   0.00000   0.00000   0.00000   0.00000   0.00000   0.00000   0.00000   0.00000   0.00000   0.00000  -0.22666   0.00000 ...
   0.00000   0.00000   0.00000   0.00000   0.00000   0.00000   0.00000   0.00000   0.00000   0.00000   0.00000  -0.22175 ...
   ...  only 12  components have been written...
 Atom #  2 - Spin component 2
  -2.47647   0.24881   0.00000   0.00000   0.00000   0.00000   0.00000   0.00000   0.00000   0.00000   0.00000   0.00000 ...
   0.24881   0.06380   0.00000   0.00000   0.00000   0.00000   0.00000   0.00000   0.00000   0.00000   0.00000   0.00000 ...
   0.00000   0.00000  -1.73787   0.00000   0.00000   0.06981   0.00000   0.00000   0.00000   0.00000   0.00000   0.00000 ...
   0.00000   0.00000   0.00000  -1.73787   0.00000   0.00000   0.06981   0.00000   0.00000   0.00000   0.00000   0.00000 ...
   0.00000   0.00000   0.00000   0.00000  -1.73787   0.00000   0.00000   0.06981   0.00000   0.00000   0.00000   0.00000 ...
   0.00000   0.00000   0.06981   0.00000   0.00000   0.01755   0.00000   0.00000   0.00000   0.00000   0.00000   0.00000 ...
   0.00000   0.00000   0.00000   0.06981   0.00000   0.00000   0.01755   0.00000   0.00000   0.00000   0.00000   0.00000 ...
   0.00000   0.00000   0.00000   0.00000   0.06981   0.00000   0.00000   0.01755   0.00000   0.00000   0.00000   0.00000 ...
   0.00000   0.00000   0.00000   0.00000   0.00000   0.00000   0.00000   0.00000  -0.16481   0.00000   0.00000   0.00000 ...
   0.00000   0.00000   0.00000   0.00000   0.00000   0.00000   0.00000   0.00000   0.00000  -0.16481   0.00000   0.00000 ...
   0.00000   0.00000   0.00000   0.00000   0.00000   0.00000   0.00000   0.00000   0.00000   0.00000  -0.16070   0.00000 ...
   0.00000   0.00000   0.00000   0.00000   0.00000   0.00000   0.00000   0.00000   0.00000   0.00000   0.00000  -0.16481 ...
   ...  only 12  components have been written...


 Augmentation waves occupancies Rhoij:
 Atom #  1 - Spin component 1
   0.99912  -0.02101   0.00000   0.00000   0.00000   0.00000   0.00000   0.00000   0.00000   0.00000   0.00000   0.00000 ...
  -0.02101   0.64325   0.00000   0.00000   0.00000   0.00000   0.00000   0.00000   0.00000   0.00000   0.00000   0.00000 ...
   0.00000   0.00000   1.00525   0.00000   0.00000   0.01757   0.00000   0.00000   0.00000   0.00000   0.00000   0.00000 ...
   0.00000   0.00000   0.00000   1.00525   0.00000   0.00000   0.01757   0.00000   0.00000   0.00000   0.00000   0.00000 ...
   0.00000   0.00000   0.00000   0.00000   1.00525   0.00000   0.00000   0.01757   0.00000   0.00000   0.00000   0.00000 ...
   0.00000   0.00000   0.01757   0.00000   0.00000   0.73788   0.00000   0.00000   0.00000   0.00000   0.00000   0.00000 ...
   0.00000   0.00000   0.00000   0.01757   0.00000   0.00000   0.73788   0.00000   0.00000   0.00000   0.00000   0.00000 ...
   0.00000   0.00000   0.00000   0.00000   0.01757   0.00000   0.00000   0.73788   0.00000   0.00000   0.00000   0.00000 ...
   0.00000   0.00000   0.00000   0.00000   0.00000   0.00000   0.00000   0.00000   0.99415   0.00000   0.00000   0.00000 ...
   0.00000   0.00000   0.00000   0.00000   0.00000   0.00000   0.00000   0.00000   0.00000   0.99415   0.00000   0.00000 ...
   0.00000   0.00000   0.00000   0.00000   0.00000   0.00000   0.00000   0.00000   0.00000   0.00000   0.98612   0.00000 ...
   0.00000   0.00000   0.00000   0.00000   0.00000   0.00000   0.00000   0.00000   0.00000   0.00000   0.00000   0.99415 ...
   ...  only 12  components have been written...
 Atom #  1 - Spin component 2
   0.99964  -0.01454   0.00000   0.00000   0.00000   0.00000   0.00000   0.00000   0.00000   0.00000   0.00000   0.00000 ...
  -0.01454   0.67800   0.00000   0.00000   0.00000   0.00000   0.00000   0.00000   0.00000   0.00000   0.00000   0.00000 ...
   0.00000   0.00000   1.00643   0.00000   0.00000   0.03888   0.00000   0.00000   0.00000   0.00000   0.00000   0.00000 ...
   0.00000   0.00000   0.00000   1.00643   0.00000   0.00000   0.03888   0.00000   0.00000   0.00000   0.00000   0.00000 ...
   0.00000   0.00000   0.00000   0.00000   1.00643   0.00000   0.00000   0.03888   0.00000   0.00000   0.00000   0.00000 ...
   0.00000   0.00000   0.03888   0.00000   0.00000   0.99416   0.00000   0.00000   0.00000   0.00000   0.00000   0.00000 ...
   0.00000   0.00000   0.00000   0.03888   0.00000   0.00000   0.99416   0.00000   0.00000   0.00000   0.00000   0.00000 ...
   0.00000   0.00000   0.00000   0.00000   0.03888   0.00000   0.00000   0.99416   0.00000   0.00000   0.00000   0.00000 ...
   0.00000   0.00000   0.00000   0.00000   0.00000   0.00000   0.00000   0.00000   0.62887   0.00000   0.00000   0.00000 ...
   0.00000   0.00000   0.00000   0.00000   0.00000   0.00000   0.00000   0.00000   0.00000   0.62887   0.00000   0.00000 ...
   0.00000   0.00000   0.00000   0.00000   0.00000   0.00000   0.00000   0.00000   0.00000   0.00000   0.37861   0.00000 ...
   0.00000   0.00000   0.00000   0.00000   0.00000   0.00000   0.00000   0.00000   0.00000   0.00000   0.00000   0.62887 ...
   ...  only 12  components have been written...
 Atom #  2 - Spin component 1
   0.99916  -0.02060   0.00000   0.00000   0.00000   0.00000   0.00000   0.00000   0.00000   0.00000   0.00000   0.00000 ...
  -0.02060   0.63930   0.00000   0.00000   0.00000   0.00000   0.00000   0.00000   0.00000   0.00000   0.00000   0.00000 ...
   0.00000   0.00000   1.00533   0.00000   0.00000   0.01888   0.00000   0.00000   0.00000   0.00000   0.00000   0.00000 ...
   0.00000   0.00000   0.00000   1.00533   0.00000   0.00000   0.01888   0.00000   0.00000   0.00000   0.00000   0.00000 ...
   0.00000   0.00000   0.00000   0.00000   1.00533   0.00000   0.00000   0.01888   0.00000   0.00000   0.00000   0.00000 ...
   0.00000   0.00000   0.01888   0.00000   0.00000   0.73440   0.00000   0.00000   0.00000   0.00000   0.00000   0.00000 ...
   0.00000   0.00000   0.00000   0.01888   0.00000   0.00000   0.73440   0.00000   0.00000   0.00000   0.00000   0.00000 ...
   0.00000   0.00000   0.00000   0.00000   0.01888   0.00000   0.00000   0.73440   0.00000   0.00000   0.00000   0.00000 ...
   0.00000   0.00000   0.00000   0.00000   0.00000   0.00000   0.00000   0.00000   0.99464   0.00000   0.00000   0.00000 ...
   0.00000   0.00000   0.00000   0.00000   0.00000   0.00000   0.00000   0.00000   0.00000   0.99464   0.00000   0.00000 ...
   0.00000   0.00000   0.00000   0.00000   0.00000   0.00000   0.00000   0.00000   0.00000   0.00000   0.98662   0.00000 ...
   0.00000   0.00000   0.00000   0.00000   0.00000   0.00000   0.00000   0.00000   0.00000   0.00000   0.00000   0.99464 ...
   ...  only 12  components have been written...
 Atom #  2 - Spin component 2
   0.99967  -0.01416   0.00000   0.00000   0.00000   0.00000   0.00000   0.00000   0.00000   0.00000   0.00000   0.00000 ...
  -0.01416   0.67500   0.00000   0.00000   0.00000   0.00000   0.00000   0.00000   0.00000   0.00000   0.00000   0.00000 ...
   0.00000   0.00000   1.00650   0.00000   0.00000   0.04003   0.00000   0.00000   0.00000   0.00000   0.00000   0.00000 ...
   0.00000   0.00000   0.00000   1.00650   0.00000   0.00000   0.04003   0.00000   0.00000   0.00000   0.00000   0.00000 ...
   0.00000   0.00000   0.00000   0.00000   1.00650   0.00000   0.00000   0.04003   0.00000   0.00000   0.00000   0.00000 ...
   0.00000   0.00000   0.04003   0.00000   0.00000   0.99110   0.00000   0.00000   0.00000   0.00000   0.00000   0.00000 ...
   0.00000   0.00000   0.00000   0.04003   0.00000   0.00000   0.99110   0.00000   0.00000   0.00000   0.00000   0.00000 ...
   0.00000   0.00000   0.00000   0.00000   0.04003   0.00000   0.00000   0.99110   0.00000   0.00000   0.00000   0.00000 ...
   0.00000   0.00000   0.00000   0.00000   0.00000   0.00000   0.00000   0.00000   0.63326   0.00000   0.00000   0.00000 ...
   0.00000   0.00000   0.00000   0.00000   0.00000   0.00000   0.00000   0.00000   0.00000   0.63326   0.00000   0.00000 ...
   0.00000   0.00000   0.00000   0.00000   0.00000   0.00000   0.00000   0.00000   0.00000   0.00000   0.38202   0.00000 ...
   0.00000   0.00000   0.00000   0.00000   0.00000   0.00000   0.00000   0.00000   0.00000   0.00000   0.00000   0.63326 ...
   ...  only 12  components have been written...

 "PAW+U" part of augmentation waves occupancies Rhoij:
 Atom #  1 - L=2 ONLY - Spin component 1
   0.99415   0.00000   0.00000   0.00000   0.00000   0.01295   0.00000   0.00000   0.00000   0.00000
   0.00000   0.99415   0.00000   0.00000   0.00000   0.00000   0.01295   0.00000   0.00000   0.00000
   0.00000   0.00000   0.98612   0.00000   0.00000   0.00000   0.00000   0.00393   0.00000   0.00000
   0.00000   0.00000   0.00000   0.99415   0.00000   0.00000   0.00000   0.00000   0.01295   0.00000
   0.00000   0.00000   0.00000   0.00000   0.98612   0.00000   0.00000   0.00000   0.00000   0.00393
   0.01295   0.00000   0.00000   0.00000   0.00000   0.00248   0.00000   0.00000   0.00000   0.00000
   0.00000   0.01295   0.00000   0.00000   0.00000   0.00000   0.00248   0.00000   0.00000   0.00000
   0.00000   0.00000   0.00393   0.00000   0.00000   0.00000   0.00000   0.00230   0.00000   0.00000
   0.00000   0.00000   0.00000   0.01295   0.00000   0.00000   0.00000   0.00000   0.00248   0.00000
   0.00000   0.00000   0.00000   0.00000   0.00393   0.00000   0.00000   0.00000   0.00000   0.00230
 Atom #  1 - L=2 ONLY - Spin component 2
   0.62887   0.00000   0.00000   0.00000   0.00000   0.04358   0.00000   0.00000   0.00000   0.00000
   0.00000   0.62887   0.00000   0.00000   0.00000   0.00000   0.04358   0.00000   0.00000   0.00000
   0.00000   0.00000   0.37861   0.00000   0.00000   0.00000   0.00000   0.03511   0.00000   0.00000
   0.00000   0.00000   0.00000   0.62887   0.00000   0.00000   0.00000   0.00000   0.04358   0.00000
   0.00000   0.00000   0.00000   0.00000   0.37861   0.00000   0.00000   0.00000   0.00000   0.03511
   0.04358   0.00000   0.00000   0.00000   0.00000   0.00339   0.00000   0.00000   0.00000   0.00000
   0.00000   0.04358   0.00000   0.00000   0.00000   0.00000   0.00339   0.00000   0.00000   0.00000
   0.00000   0.00000   0.03511   0.00000   0.00000   0.00000   0.00000   0.00342   0.00000   0.00000
   0.00000   0.00000   0.00000   0.04358   0.00000   0.00000   0.00000   0.00000   0.00339   0.00000
   0.00000   0.00000   0.00000   0.00000   0.03511   0.00000   0.00000   0.00000   0.00000   0.00342
 Atom #  2 - L=2 ONLY - Spin component 1
   0.99464   0.00000   0.00000   0.00000   0.00000   0.01337   0.00000   0.00000   0.00000   0.00000
   0.00000   0.99464   0.00000   0.00000   0.00000   0.00000   0.01337   0.00000   0.00000   0.00000
   0.00000   0.00000   0.98662   0.00000   0.00000   0.00000   0.00000   0.00429   0.00000   0.00000
   0.00000   0.00000   0.00000   0.99464   0.00000   0.00000   0.00000   0.00000   0.01337   0.00000
   0.00000   0.00000   0.00000   0.00000   0.98662   0.00000   0.00000   0.00000   0.00000   0.00429
   0.01337   0.00000   0.00000   0.00000   0.00000   0.00248   0.00000   0.00000   0.00000   0.00000
   0.00000   0.01337   0.00000   0.00000   0.00000   0.00000   0.00248   0.00000   0.00000   0.00000
   0.00000   0.00000   0.00429   0.00000   0.00000   0.00000   0.00000   0.00229   0.00000   0.00000
   0.00000   0.00000   0.00000   0.01337   0.00000   0.00000   0.00000   0.00000   0.00248   0.00000
   0.00000   0.00000   0.00000   0.00000   0.00429   0.00000   0.00000   0.00000   0.00000   0.00229
 Atom #  2 - L=2 ONLY - Spin component 2
   0.63326   0.00000   0.00000   0.00000   0.00000   0.04372   0.00000   0.00000   0.00000   0.00000
   0.00000   0.63326   0.00000   0.00000   0.00000   0.00000   0.04372   0.00000   0.00000   0.00000
   0.00000   0.00000   0.38202   0.00000   0.00000   0.00000   0.00000   0.03527   0.00000   0.00000
   0.00000   0.00000   0.00000   0.63326   0.00000   0.00000   0.00000   0.00000   0.04372   0.00000
   0.00000   0.00000   0.00000   0.00000   0.38202   0.00000   0.00000   0.00000   0.00000   0.03527
   0.04372   0.00000   0.00000   0.00000   0.00000   0.00339   0.00000   0.00000   0.00000   0.00000
   0.00000   0.04372   0.00000   0.00000   0.00000   0.00000   0.00339   0.00000   0.00000   0.00000
   0.00000   0.00000   0.03527   0.00000   0.00000   0.00000   0.00000   0.00342   0.00000   0.00000
   0.00000   0.00000   0.00000   0.04372   0.00000   0.00000   0.00000   0.00000   0.00339   0.00000
   0.00000   0.00000   0.00000   0.00000   0.03527   0.00000   0.00000   0.00000   0.00000   0.00342

 ---------- LDA+U DATA --------------------------------------------------- 

 ====== For Atom     1, occupations for correlated orbitals. lpawu =   2

 Atom   1. Occ. for lpawu and for spin  1 =   4.12205
 Atom   1. Occ. for lpawu and for spin  2 =   1.68394
 => On atom   1,  local Mag. for lpawu is       -2.438105

 == Occupation matrix for correlated orbitals:

 Occupation matrix for spin  1
     0.81617    0.00000    0.00000    0.00000    0.00000
     0.00000    0.81617    0.00000    0.00000    0.00000
     0.00000    0.00000    0.83677    0.00000    0.00000
     0.00000    0.00000    0.00000    0.81617    0.00000
     0.00000    0.00000    0.00000    0.00000    0.83677


 Occupation matrix for spin  2
     0.41178    0.00000    0.00000    0.00000    0.00000
     0.00000    0.41178    0.00000    0.00000    0.00000
     0.00000    0.00000    0.22430    0.00000    0.00000
     0.00000    0.00000    0.00000    0.41178    0.00000
     0.00000    0.00000    0.00000    0.00000    0.22430


 ====== For Atom     2, occupations for correlated orbitals. lpawu =   2

 Atom   2. Occ. for lpawu and for spin  1 =   4.11799
 Atom   2. Occ. for lpawu and for spin  2 =   1.69874
 => On atom   2,  local Mag. for lpawu is       -2.419251

 == Occupation matrix for correlated orbitals:

 Occupation matrix for spin  1
     0.81531    0.00000    0.00000    0.00000    0.00000
     0.00000    0.81531    0.00000    0.00000    0.00000
     0.00000    0.00000    0.83604    0.00000    0.00000
     0.00000    0.00000    0.00000    0.81531    0.00000
     0.00000    0.00000    0.00000    0.00000    0.83604


 Occupation matrix for spin  2
     0.41509    0.00000    0.00000    0.00000    0.00000
     0.00000    0.41509    0.00000    0.00000    0.00000
     0.00000    0.00000    0.22674    0.00000    0.00000
     0.00000    0.00000    0.00000    0.41509    0.00000
     0.00000    0.00000    0.00000    0.00000    0.22674




     iter   Etot(hartree)     deltaE(h) residm    nres2    magn
 ETOT  1  -248.69031835415    -2.49E+02 3.24E-04 4.12E-01 4.593
 ETOT  2  -248.69873045527    -8.41E-03 9.63E-03 8.68E+00 4.593
 ETOT  3  -248.68985808333     8.87E-03 2.06E-03 1.23E-02 4.593
 ETOT  4  -248.68989627878    -3.82E-05 1.75E-04 1.20E-02 4.593
 ETOT  5  -248.68988393216     1.23E-05 6.22E-06 2.12E-04 4.593
 ETOT  6  -248.68988465659    -7.24E-07 4.02E-07 3.01E-04 4.593
 ETOT  7  -248.68988457972     7.69E-08 3.46E-06 4.35E-05 4.593
 ETOT  8  -248.68988458882    -9.09E-09 3.68E-07 1.53E-06 4.593
 ETOT  9  -248.68988459375    -4.93E-09 3.02E-06 4.46E-07 4.593
 ETOT 10  -248.68988459356     1.92E-10 3.46E-07 1.75E-08 4.593
 ETOT 11  -248.68988459371    -1.49E-10 2.57E-06 2.33E-08 4.593
 ETOT 12  -248.68988459373    -2.29E-11 2.98E-07 2.38E-10 4.593

 At SCF step   12       nres2   =  2.38E-10 < tolvrs=  1.00E-08 =>converged.

 Cartesian components of stress tensor (hartree/bohr^3)
  sigma(1 1)=  7.33852165E-03  sigma(3 2)=  0.00000000E+00
  sigma(2 2)=  7.33852165E-03  sigma(3 1)=  0.00000000E+00
  sigma(3 3)=  7.33852165E-03  sigma(2 1)=  0.00000000E+00


--- !ResultsGS
comment   : Summary of ground state results
natom     :        2
nsppol    :        2
nspinor   :        1
nspden    :        2
nelect    :  3.200000000000000E+001
charge    :  0.000000000000000E+000
abc       : [ 9.000000000000000E+001,  9.000000000000000E+001,  9.000000000000000E+001, ]
alpha_beta_gamma_angles: [ 9.000000000000000E+001,  9.000000000000000E+001,  9.000000000000000E+001, ]
cutoff_energies: {"ecut":  8.000000000000000E+000, "pawecutdg":  4.000000000000000E+001, }
convergence: {
    "deltae": -2.290789780090563E-011, "res2":  2.380741824937569E-010, 
    "residm":  2.979858170094429E-007, "diffor": undef, 
}
etotal    : -2.486898845937346E+002
entropy   :  0.000000000000000E+000
fermie    :  2.506121837255002E-001
stress_tensor: !CartTensor
- [ 7.338521645280524E-003,  0.000000000000000E+000,  0.000000000000000E+000, ]
- [ 0.000000000000000E+000,  7.338521645280524E-003,  0.000000000000000E+000, ]
- [ 0.000000000000000E+000,  0.000000000000000E+000,  7.338521645280469E-003, ]
cartesian_forces: !CartForces
- [-0.000000000000000E+000, -0.000000000000000E+000, -0.000000000000000E+000, ]
- [-0.000000000000000E+000, -0.000000000000000E+000, -0.000000000000000E+000, ]
...

 Integrated electronic and magnetization densities in atomic spheres:
 ---------------------------------------------------------------------
 Radius=ratsph(iatom), smearing ratsm=  0.0000. Diff(up-dn)=approximate z local magnetic moment.
 Atom    Radius    up_density   dn_density  Total(up+dn)  Diff(up-dn)
    1   2.02984     8.309987     5.935389     14.245377     2.374598
    2   2.02984     8.315062     5.921540     14.236602     2.393522
 ---------------------------------------------------------------------
  Sum:             16.625049    11.856930     28.481979     4.768119
 Total magnetization (from the atomic spheres):             4.768119
 Total magnetization (exact up - dn):                       4.592591

 PAW TEST:
 ==== Compensation charge inside spheres ============
 The following values must be close to each other ...
 Compensation charge over spherical meshes =     19.158009283594119
 Compensation charge over fine fft grid    =     19.158001031065627

 ==== Results concerning PAW augmentation regions ====

 Total pseudopotential strength Dij (hartree):
 Atom #  1 - Spin component 1
  -2.53561   0.26273   0.00000   0.00000   0.00000   0.00000   0.00000   0.00000   0.00000   0.00000   0.00000   0.00000 ...
   0.26273   0.06308   0.00000   0.00000   0.00000   0.00000   0.00000   0.00000   0.00000   0.00000   0.00000   0.00000 ...
   0.00000   0.00000  -1.81381   0.00000   0.00000   0.07899   0.00000   0.00000   0.00000   0.00000   0.00000   0.00000 ...
   0.00000   0.00000   0.00000  -1.81381   0.00000   0.00000   0.07899   0.00000   0.00000   0.00000   0.00000   0.00000 ...
   0.00000   0.00000   0.00000   0.00000  -1.81381   0.00000   0.00000   0.07899   0.00000   0.00000   0.00000   0.00000 ...
   0.00000   0.00000   0.07899   0.00000   0.00000   0.01695   0.00000   0.00000   0.00000   0.00000   0.00000   0.00000 ...
   0.00000   0.00000   0.00000   0.07899   0.00000   0.00000   0.01695   0.00000   0.00000   0.00000   0.00000   0.00000 ...
   0.00000   0.00000   0.00000   0.00000   0.07899   0.00000   0.00000   0.01695   0.00000   0.00000   0.00000   0.00000 ...
   0.00000   0.00000   0.00000   0.00000   0.00000   0.00000   0.00000   0.00000  -0.22344   0.00000   0.00000   0.00000 ...
   0.00000   0.00000   0.00000   0.00000   0.00000   0.00000   0.00000   0.00000   0.00000  -0.22344   0.00000   0.00000 ...
   0.00000   0.00000   0.00000   0.00000   0.00000   0.00000   0.00000   0.00000   0.00000   0.00000  -0.22835   0.00000 ...
   0.00000   0.00000   0.00000   0.00000   0.00000   0.00000   0.00000   0.00000   0.00000   0.00000   0.00000  -0.22344 ...
   ...  only 12  components have been written...
 Atom #  1 - Spin component 2
  -2.47493   0.24844   0.00000   0.00000   0.00000   0.00000   0.00000   0.00000   0.00000   0.00000   0.00000   0.00000 ...
   0.24844   0.06387   0.00000   0.00000   0.00000   0.00000   0.00000   0.00000   0.00000   0.00000   0.00000   0.00000 ...
   0.00000   0.00000  -1.73595   0.00000   0.00000   0.06958   0.00000   0.00000   0.00000   0.00000   0.00000   0.00000 ...
   0.00000   0.00000   0.00000  -1.73595   0.00000   0.00000   0.06958   0.00000   0.00000   0.00000   0.00000   0.00000 ...
   0.00000   0.00000   0.00000   0.00000  -1.73595   0.00000   0.00000   0.06958   0.00000   0.00000   0.00000   0.00000 ...
   0.00000   0.00000   0.06958   0.00000   0.00000   0.01757   0.00000   0.00000   0.00000   0.00000   0.00000   0.00000 ...
   0.00000   0.00000   0.00000   0.06958   0.00000   0.00000   0.01757   0.00000   0.00000   0.00000   0.00000   0.00000 ...
   0.00000   0.00000   0.00000   0.00000   0.06958   0.00000   0.00000   0.01757   0.00000   0.00000   0.00000   0.00000 ...
   0.00000   0.00000   0.00000   0.00000   0.00000   0.00000   0.00000   0.00000  -0.16650   0.00000   0.00000   0.00000 ...
   0.00000   0.00000   0.00000   0.00000   0.00000   0.00000   0.00000   0.00000   0.00000  -0.16650   0.00000   0.00000 ...
   0.00000   0.00000   0.00000   0.00000   0.00000   0.00000   0.00000   0.00000   0.00000   0.00000  -0.16242   0.00000 ...
   0.00000   0.00000   0.00000   0.00000   0.00000   0.00000   0.00000   0.00000   0.00000   0.00000   0.00000  -0.16650 ...
   ...  only 12  components have been written...
 Atom #  2 - Spin component 1
  -2.53833   0.26338   0.00000   0.00000   0.00000   0.00000   0.00000   0.00000   0.00000   0.00000   0.00000   0.00000 ...
   0.26338   0.06300   0.00000   0.00000   0.00000   0.00000   0.00000   0.00000   0.00000   0.00000   0.00000   0.00000 ...
   0.00000   0.00000  -1.81726   0.00000   0.00000   0.07941   0.00000   0.00000   0.00000   0.00000   0.00000   0.00000 ...
   0.00000   0.00000   0.00000  -1.81726   0.00000   0.00000   0.07941   0.00000   0.00000   0.00000   0.00000   0.00000 ...
   0.00000   0.00000   0.00000   0.00000  -1.81726   0.00000   0.00000   0.07941   0.00000   0.00000   0.00000   0.00000 ...
   0.00000   0.00000   0.07941   0.00000   0.00000   0.01691   0.00000   0.00000   0.00000   0.00000   0.00000   0.00000 ...
   0.00000   0.00000   0.00000   0.07941   0.00000   0.00000   0.01691   0.00000   0.00000   0.00000   0.00000   0.00000 ...
   0.00000   0.00000   0.00000   0.00000   0.07941   0.00000   0.00000   0.01691   0.00000   0.00000   0.00000   0.00000 ...
   0.00000   0.00000   0.00000   0.00000   0.00000   0.00000   0.00000   0.00000  -0.22294   0.00000   0.00000   0.00000 ...
   0.00000   0.00000   0.00000   0.00000   0.00000   0.00000   0.00000   0.00000   0.00000  -0.22294   0.00000   0.00000 ...
   0.00000   0.00000   0.00000   0.00000   0.00000   0.00000   0.00000   0.00000   0.00000   0.00000  -0.22782   0.00000 ...
   0.00000   0.00000   0.00000   0.00000   0.00000   0.00000   0.00000   0.00000   0.00000   0.00000   0.00000  -0.22294 ...
   ...  only 12  components have been written...
 Atom #  2 - Spin component 2
  -2.47715   0.24897   0.00000   0.00000   0.00000   0.00000   0.00000   0.00000   0.00000   0.00000   0.00000   0.00000 ...
   0.24897   0.06379   0.00000   0.00000   0.00000   0.00000   0.00000   0.00000   0.00000   0.00000   0.00000   0.00000 ...
   0.00000   0.00000  -1.73877   0.00000   0.00000   0.06992   0.00000   0.00000   0.00000   0.00000   0.00000   0.00000 ...
   0.00000   0.00000   0.00000  -1.73877   0.00000   0.00000   0.06992   0.00000   0.00000   0.00000   0.00000   0.00000 ...
   0.00000   0.00000   0.00000   0.00000  -1.73877   0.00000   0.00000   0.06992   0.00000   0.00000   0.00000   0.00000 ...
   0.00000   0.00000   0.06992   0.00000   0.00000   0.01754   0.00000   0.00000   0.00000   0.00000   0.00000   0.00000 ...
   0.00000   0.00000   0.00000   0.06992   0.00000   0.00000   0.01754   0.00000   0.00000   0.00000   0.00000   0.00000 ...
   0.00000   0.00000   0.00000   0.00000   0.06992   0.00000   0.00000   0.01754   0.00000   0.00000   0.00000   0.00000 ...
   0.00000   0.00000   0.00000   0.00000   0.00000   0.00000   0.00000   0.00000  -0.16548   0.00000   0.00000   0.00000 ...
   0.00000   0.00000   0.00000   0.00000   0.00000   0.00000   0.00000   0.00000   0.00000  -0.16548   0.00000   0.00000 ...
   0.00000   0.00000   0.00000   0.00000   0.00000   0.00000   0.00000   0.00000   0.00000   0.00000  -0.16141   0.00000 ...
   0.00000   0.00000   0.00000   0.00000   0.00000   0.00000   0.00000   0.00000   0.00000   0.00000   0.00000  -0.16548 ...
   ...  only 12  components have been written...


 Augmentation waves occupancies Rhoij:
 Atom #  1 - Spin component 1
   0.99919  -0.02020   0.00000   0.00000   0.00000   0.00000   0.00000   0.00000   0.00000   0.00000   0.00000   0.00000 ...
  -0.02020   0.63541   0.00000   0.00000   0.00000   0.00000   0.00000   0.00000   0.00000   0.00000   0.00000   0.00000 ...
   0.00000   0.00000   1.00540   0.00000   0.00000   0.02002   0.00000   0.00000   0.00000   0.00000   0.00000   0.00000 ...
   0.00000   0.00000   0.00000   1.00540   0.00000   0.00000   0.02002   0.00000   0.00000   0.00000   0.00000   0.00000 ...
   0.00000   0.00000   0.00000   0.00000   1.00540   0.00000   0.00000   0.02002   0.00000   0.00000   0.00000   0.00000 ...
   0.00000   0.00000   0.02002   0.00000   0.00000   0.72702   0.00000   0.00000   0.00000   0.00000   0.00000   0.00000 ...
   0.00000   0.00000   0.00000   0.02002   0.00000   0.00000   0.72702   0.00000   0.00000   0.00000   0.00000   0.00000 ...
   0.00000   0.00000   0.00000   0.00000   0.02002   0.00000   0.00000   0.72702   0.00000   0.00000   0.00000   0.00000 ...
   0.00000   0.00000   0.00000   0.00000   0.00000   0.00000   0.00000   0.00000   0.99597   0.00000   0.00000   0.00000 ...
   0.00000   0.00000   0.00000   0.00000   0.00000   0.00000   0.00000   0.00000   0.00000   0.99597   0.00000   0.00000 ...
   0.00000   0.00000   0.00000   0.00000   0.00000   0.00000   0.00000   0.00000   0.00000   0.00000   0.98777   0.00000 ...
   0.00000   0.00000   0.00000   0.00000   0.00000   0.00000   0.00000   0.00000   0.00000   0.00000   0.00000   0.99597 ...
   ...  only 12  components have been written...
 Atom #  1 - Spin component 2
   0.99970  -0.01375   0.00000   0.00000   0.00000   0.00000   0.00000   0.00000   0.00000   0.00000   0.00000   0.00000 ...
  -0.01375   0.67222   0.00000   0.00000   0.00000   0.00000   0.00000   0.00000   0.00000   0.00000   0.00000   0.00000 ...
   0.00000   0.00000   1.00657   0.00000   0.00000   0.04118   0.00000   0.00000   0.00000   0.00000   0.00000   0.00000 ...
   0.00000   0.00000   0.00000   1.00657   0.00000   0.00000   0.04118   0.00000   0.00000   0.00000   0.00000   0.00000 ...
   0.00000   0.00000   0.00000   0.00000   1.00657   0.00000   0.00000   0.04118   0.00000   0.00000   0.00000   0.00000 ...
   0.00000   0.00000   0.04118   0.00000   0.00000   0.98415   0.00000   0.00000   0.00000   0.00000   0.00000   0.00000 ...
   0.00000   0.00000   0.00000   0.04118   0.00000   0.00000   0.98415   0.00000   0.00000   0.00000   0.00000   0.00000 ...
   0.00000   0.00000   0.00000   0.00000   0.04118   0.00000   0.00000   0.98415   0.00000   0.00000   0.00000   0.00000 ...
   0.00000   0.00000   0.00000   0.00000   0.00000   0.00000   0.00000   0.00000   0.63394   0.00000   0.00000   0.00000 ...
   0.00000   0.00000   0.00000   0.00000   0.00000   0.00000   0.00000   0.00000   0.00000   0.63394   0.00000   0.00000 ...
   0.00000   0.00000   0.00000   0.00000   0.00000   0.00000   0.00000   0.00000   0.00000   0.00000   0.38302   0.00000 ...
   0.00000   0.00000   0.00000   0.00000   0.00000   0.00000   0.00000   0.00000   0.00000   0.00000   0.00000   0.63394 ...
   ...  only 12  components have been written...
 Atom #  2 - Spin component 1
   0.99916  -0.02062   0.00000   0.00000   0.00000   0.00000   0.00000   0.00000   0.00000   0.00000   0.00000   0.00000 ...
  -0.02062   0.63933   0.00000   0.00000   0.00000   0.00000   0.00000   0.00000   0.00000   0.00000   0.00000   0.00000 ...
   0.00000   0.00000   1.00532   0.00000   0.00000   0.01872   0.00000   0.00000   0.00000   0.00000   0.00000   0.00000 ...
   0.00000   0.00000   0.00000   1.00532   0.00000   0.00000   0.01872   0.00000   0.00000   0.00000   0.00000   0.00000 ...
   0.00000   0.00000   0.00000   0.00000   1.00532   0.00000   0.00000   0.01872   0.00000   0.00000   0.00000   0.00000 ...
   0.00000   0.00000   0.01872   0.00000   0.00000   0.73045   0.00000   0.00000   0.00000   0.00000   0.00000   0.00000 ...
   0.00000   0.00000   0.00000   0.01872   0.00000   0.00000   0.73045   0.00000   0.00000   0.00000   0.00000   0.00000 ...
   0.00000   0.00000   0.00000   0.00000   0.01872   0.00000   0.00000   0.73045   0.00000   0.00000   0.00000   0.00000 ...
   0.00000   0.00000   0.00000   0.00000   0.00000   0.00000   0.00000   0.00000   0.99547   0.00000   0.00000   0.00000 ...
   0.00000   0.00000   0.00000   0.00000   0.00000   0.00000   0.00000   0.00000   0.00000   0.99547   0.00000   0.00000 ...
   0.00000   0.00000   0.00000   0.00000   0.00000   0.00000   0.00000   0.00000   0.00000   0.00000   0.98726   0.00000 ...
   0.00000   0.00000   0.00000   0.00000   0.00000   0.00000   0.00000   0.00000   0.00000   0.00000   0.00000   0.99547 ...
   ...  only 12  components have been written...
 Atom #  2 - Spin component 2
   0.99967  -0.01414   0.00000   0.00000   0.00000   0.00000   0.00000   0.00000   0.00000   0.00000   0.00000   0.00000 ...
  -0.01414   0.67522   0.00000   0.00000   0.00000   0.00000   0.00000   0.00000   0.00000   0.00000   0.00000   0.00000 ...
   0.00000   0.00000   1.00650   0.00000   0.00000   0.04003   0.00000   0.00000   0.00000   0.00000   0.00000   0.00000 ...
   0.00000   0.00000   0.00000   1.00650   0.00000   0.00000   0.04003   0.00000   0.00000   0.00000   0.00000   0.00000 ...
   0.00000   0.00000   0.00000   0.00000   1.00650   0.00000   0.00000   0.04003   0.00000   0.00000   0.00000   0.00000 ...
   0.00000   0.00000   0.04003   0.00000   0.00000   0.98718   0.00000   0.00000   0.00000   0.00000   0.00000   0.00000 ...
   0.00000   0.00000   0.00000   0.04003   0.00000   0.00000   0.98718   0.00000   0.00000   0.00000   0.00000   0.00000 ...
   0.00000   0.00000   0.00000   0.00000   0.04003   0.00000   0.00000   0.98718   0.00000   0.00000   0.00000   0.00000 ...
   0.00000   0.00000   0.00000   0.00000   0.00000   0.00000   0.00000   0.00000   0.62958   0.00000   0.00000   0.00000 ...
   0.00000   0.00000   0.00000   0.00000   0.00000   0.00000   0.00000   0.00000   0.00000   0.62958   0.00000   0.00000 ...
   0.00000   0.00000   0.00000   0.00000   0.00000   0.00000   0.00000   0.00000   0.00000   0.00000   0.37961   0.00000 ...
   0.00000   0.00000   0.00000   0.00000   0.00000   0.00000   0.00000   0.00000   0.00000   0.00000   0.00000   0.62958 ...
   ...  only 12  components have been written...

 "PAW+U" part of augmentation waves occupancies Rhoij:
 Atom #  1 - L=2 ONLY - Spin component 1
   0.99597   0.00000   0.00000   0.00000   0.00000   0.01337   0.00000   0.00000   0.00000   0.00000
   0.00000   0.99597   0.00000   0.00000   0.00000   0.00000   0.01337   0.00000   0.00000   0.00000
   0.00000   0.00000   0.98777   0.00000   0.00000   0.00000   0.00000   0.00442   0.00000   0.00000
   0.00000   0.00000   0.00000   0.99597   0.00000   0.00000   0.00000   0.00000   0.01337   0.00000
   0.00000   0.00000   0.00000   0.00000   0.98777   0.00000   0.00000   0.00000   0.00000   0.00442
   0.01337   0.00000   0.00000   0.00000   0.00000   0.00247   0.00000   0.00000   0.00000   0.00000
   0.00000   0.01337   0.00000   0.00000   0.00000   0.00000   0.00247   0.00000   0.00000   0.00000
   0.00000   0.00000   0.00442   0.00000   0.00000   0.00000   0.00000   0.00228   0.00000   0.00000
   0.00000   0.00000   0.00000   0.01337   0.00000   0.00000   0.00000   0.00000   0.00247   0.00000
   0.00000   0.00000   0.00000   0.00000   0.00442   0.00000   0.00000   0.00000   0.00000   0.00228
 Atom #  1 - L=2 ONLY - Spin component 2
   0.63394   0.00000   0.00000   0.00000   0.00000   0.04367   0.00000   0.00000   0.00000   0.00000
   0.00000   0.63394   0.00000   0.00000   0.00000   0.00000   0.04367   0.00000   0.00000   0.00000
   0.00000   0.00000   0.38302   0.00000   0.00000   0.00000   0.00000   0.03526   0.00000   0.00000
   0.00000   0.00000   0.00000   0.63394   0.00000   0.00000   0.00000   0.00000   0.04367   0.00000
   0.00000   0.00000   0.00000   0.00000   0.38302   0.00000   0.00000   0.00000   0.00000   0.03526
   0.04367   0.00000   0.00000   0.00000   0.00000   0.00338   0.00000   0.00000   0.00000   0.00000
   0.00000   0.04367   0.00000   0.00000   0.00000   0.00000   0.00338   0.00000   0.00000   0.00000
   0.00000   0.00000   0.03526   0.00000   0.00000   0.00000   0.00000   0.00341   0.00000   0.00000
   0.00000   0.00000   0.00000   0.04367   0.00000   0.00000   0.00000   0.00000   0.00338   0.00000
   0.00000   0.00000   0.00000   0.00000   0.03526   0.00000   0.00000   0.00000   0.00000   0.00341
 Atom #  2 - L=2 ONLY - Spin component 1
   0.99547   0.00000   0.00000   0.00000   0.00000   0.01295   0.00000   0.00000   0.00000   0.00000
   0.00000   0.99547   0.00000   0.00000   0.00000   0.00000   0.01295   0.00000   0.00000   0.00000
   0.00000   0.00000   0.98726   0.00000   0.00000   0.00000   0.00000   0.00406   0.00000   0.00000
   0.00000   0.00000   0.00000   0.99547   0.00000   0.00000   0.00000   0.00000   0.01295   0.00000
   0.00000   0.00000   0.00000   0.00000   0.98726   0.00000   0.00000   0.00000   0.00000   0.00406
   0.01295   0.00000   0.00000   0.00000   0.00000   0.00247   0.00000   0.00000   0.00000   0.00000
   0.00000   0.01295   0.00000   0.00000   0.00000   0.00000   0.00247   0.00000   0.00000   0.00000
   0.00000   0.00000   0.00406   0.00000   0.00000   0.00000   0.00000   0.00229   0.00000   0.00000
   0.00000   0.00000   0.00000   0.01295   0.00000   0.00000   0.00000   0.00000   0.00247   0.00000
   0.00000   0.00000   0.00000   0.00000   0.00406   0.00000   0.00000   0.00000   0.00000   0.00229
 Atom #  2 - L=2 ONLY - Spin component 2
   0.62958   0.00000   0.00000   0.00000   0.00000   0.04352   0.00000   0.00000   0.00000   0.00000
   0.00000   0.62958   0.00000   0.00000   0.00000   0.00000   0.04352   0.00000   0.00000   0.00000
   0.00000   0.00000   0.37961   0.00000   0.00000   0.00000   0.00000   0.03510   0.00000   0.00000
   0.00000   0.00000   0.00000   0.62958   0.00000   0.00000   0.00000   0.00000   0.04352   0.00000
   0.00000   0.00000   0.00000   0.00000   0.37961   0.00000   0.00000   0.00000   0.00000   0.03510
   0.04352   0.00000   0.00000   0.00000   0.00000   0.00338   0.00000   0.00000   0.00000   0.00000
   0.00000   0.04352   0.00000   0.00000   0.00000   0.00000   0.00338   0.00000   0.00000   0.00000
   0.00000   0.00000   0.03510   0.00000   0.00000   0.00000   0.00000   0.00341   0.00000   0.00000
   0.00000   0.00000   0.00000   0.04352   0.00000   0.00000   0.00000   0.00000   0.00338   0.00000
   0.00000   0.00000   0.00000   0.00000   0.03510   0.00000   0.00000   0.00000   0.00000   0.00341

 ---------- LDA+U DATA --------------------------------------------------- 

 ====== For Atom     1, occupations for correlated orbitals. lpawu =   2

 Atom   1. Occ. for lpawu and for spin  1 =   4.12241
 Atom   1. Occ. for lpawu and for spin  2 =   1.70263
 => On atom   1,  local Mag. for lpawu is       -2.419783

 == Occupation matrix for correlated orbitals:

 Occupation matrix for spin  1
     0.81642    0.00000    0.00000    0.00000    0.00000
     0.00000    0.81642    0.00000    0.00000    0.00000
     0.00000    0.00000    0.83658    0.00000    0.00000
     0.00000    0.00000    0.00000    0.81642    0.00000
     0.00000    0.00000    0.00000    0.00000    0.83658


 Occupation matrix for spin  2
     0.41582    0.00000    0.00000    0.00000    0.00000
     0.00000    0.41582    0.00000    0.00000    0.00000
     0.00000    0.00000    0.22759    0.00000    0.00000
     0.00000    0.00000    0.00000    0.41582    0.00000
     0.00000    0.00000    0.00000    0.00000    0.22759


 ====== For Atom     2, occupations for correlated orbitals. lpawu =   2

 Atom   2. Occ. for lpawu and for spin  1 =   4.12642
 Atom   2. Occ. for lpawu and for spin  2 =   1.68789
 => On atom   2,  local Mag. for lpawu is       -2.438529

 == Occupation matrix for correlated orbitals:

 Occupation matrix for spin  1
     0.81727    0.00000    0.00000    0.00000    0.00000
     0.00000    0.81727    0.00000    0.00000    0.00000
     0.00000    0.00000    0.83730    0.00000    0.00000
     0.00000    0.00000    0.00000    0.81727    0.00000
     0.00000    0.00000    0.00000    0.00000    0.83730


 Occupation matrix for spin  2
     0.41253    0.00000    0.00000    0.00000    0.00000
     0.00000    0.41253    0.00000    0.00000    0.00000
     0.00000    0.00000    0.22515    0.00000    0.00000
     0.00000    0.00000    0.00000    0.41253    0.00000
     0.00000    0.00000    0.00000    0.00000    0.22515




 # input for ujdet, cut it using 'sed -n "/MARK/,/MARK/p" abi.out > ujdet.in '------- 

           ndtset        4
              nat        2
           nspden        2
         macro_uj        1
           pawrad      2.02984247E+00
        ph0phiint      8.54332879E-01
        pawprtvol        0
              vsh1     3.6749325398E-03  3.6749325398E-03  0.0000000000E+00
                       0.0000000000E+00
              vsh2     3.6749325398E-03  3.6749325398E-03  0.0000000000E+00
                       0.0000000000E+00
              vsh3    -3.6749325398E-03 -3.6749325398E-03 -0.0000000000E+00
                      -0.0000000000E+00
              vsh4    -3.6749325398E-03 -3.6749325398E-03 -0.0000000000E+00
                      -0.0000000000E+00
              occ1     4.1143258232E+00  1.6703524778E+00  4.1251256650E+00
                       1.7123048019E+00
              occ2     4.1220490762E+00  1.6839286434E+00  4.1179968739E+00
                       1.6987556736E+00
              occ3     4.1372361521E+00  1.7304565835E+00  4.1122386812E+00
                       1.6606834176E+00
              occ4     4.1224155432E+00  1.7026241516E+00  4.1264239318E+00
                       1.6878975812E+00
             xred      0.0000000000E+00  0.0000000000E+00  0.0000000000E+00
                       5.0000000000E-01  5.0000000000E-01  5.0000000000E-01
           rprimd      5.4200000000E+00  0.0000000000E+00  0.0000000000E+00
                       0.0000000000E+00  5.4200000000E+00  0.0000000000E+00
                       0.0000000000E+00  0.0000000000E+00  5.4200000000E+00
            wfchr      4.3772661697E+00  3.0000000000E+00  2.0000000000E+00
                       1.4530610236E+00 -7.4483924347E-01  1.1680994649E-01

 # further possible options: 
 #    scdim    2 2 2 
 #    mdist    10.0  
 #  pawujga    2 
 # pawujopt    2 
 # pawujrad    3.0
 # ------- end input for ujdet: end-MARK  -------- 


 ---------- calculate U, (J) start ---------- 

 All pawujat  ok and equal to   1
 All macro_uj ok and equal to   1
 URES      ii    nat       r_max    U(J)[eV]   U_ASA[eV]   U_inf[eV]
 URES       1      2     4.69390     4.74556     3.67983     3.20151
 URES       2     16     9.38770     8.77695     6.80589     5.92123
 URES       3     54    14.08160     9.17083     7.11131     6.18695
 URES       4    128    18.77540     9.25648     7.17773     6.24473
 URES       5    250    23.46930     9.28510     7.19992     6.26404

 ---------- calculate U, (J) end -------------- 

================================================================================

 ----iterations are completed or convergence reached----

 Mean square residual over all n,k,spin=   23.448E-10; max=  29.799E-08
 reduced coordinates (array xred) for    2 atoms
       0.000000000000      0.000000000000      0.000000000000
       0.500000000000      0.500000000000      0.500000000000
 rms dE/dt=  0.0000E+00; max dE/dt=  0.0000E+00; dE/dt below (all hartree)
    1       0.000000000000      0.000000000000      0.000000000000
    2       0.000000000000      0.000000000000      0.000000000000

 cartesian coordinates (angstrom) at end:
    1      0.00000000000000     0.00000000000000     0.00000000000000
    2      1.43407023527890     1.43407023527890     1.43407023527890

 cartesian forces (hartree/bohr) at end:
    1     -0.00000000000000    -0.00000000000000    -0.00000000000000
    2     -0.00000000000000    -0.00000000000000    -0.00000000000000
 frms,max,avg= 0.0000000E+00 0.0000000E+00   0.000E+00  0.000E+00  0.000E+00 h/b

 cartesian forces (eV/Angstrom) at end:
    1     -0.00000000000000    -0.00000000000000    -0.00000000000000
    2     -0.00000000000000    -0.00000000000000    -0.00000000000000
 frms,max,avg= 0.0000000E+00 0.0000000E+00   0.000E+00  0.000E+00  0.000E+00 e/A
 length scales=  5.420000000000  5.420000000000  5.420000000000 bohr
              =  2.868140470558  2.868140470558  2.868140470558 angstroms
 Fermi (or HOMO) energy (hartree) =   0.25061   Average Vxc (hartree)=  -0.50492
 Magnetization (Bohr magneton)=  4.59259259E+00
 Total spin up =  1.82962963E+01   Total spin down =  1.37037037E+01
 Eigenvalues (hartree) for nkpt=   4  k points, SPIN UP:
 kpt#   1, nband= 25, wtk=  0.29630, kpt=  0.1667  0.1667  0.1667 (reduced coord)
  -2.99981   -2.99467   -1.74655   -1.74655   -1.74381   -1.73822   -1.73677   -1.73677
   0.02001    0.11389    0.11389    0.16490    0.16490    0.18715    0.20973    0.20973
   0.21310    0.23892    0.23892    0.54730    0.54730    0.60305    0.96823    0.96823
   0.98051
      occupation numbers for kpt#   1
   1.00000    1.00000    1.00000    1.00000    1.00000    1.00000    1.00000    1.00000
   1.00000    1.00000    1.00000    1.00000    1.00000    1.00000    1.00000    1.00000
   1.00000    1.00000    1.00000    0.00000    0.00000    0.00000    0.00000    0.00000
   0.00000
 prteigrs : prtvol=0 or 1, do not print more k-points.

 Eigenvalues (hartree) for nkpt=   4  k points, SPIN DOWN:
 kpt#   1, nband= 25, wtk=  0.29630, kpt=  0.1667  0.1667  0.1667 (reduced coord)
  -2.89775   -2.89318   -1.64758   -1.64758   -1.64426   -1.63935   -1.63727   -1.63727
   0.02430    0.17875    0.17875    0.23937    0.23937    0.26056    0.29373    0.30719
   0.30719    0.32484    0.32484    0.57590    0.57590    0.62880    0.97595    0.97595
   0.99293
      occupation numbers for kpt#   1
   1.00000    1.00000    1.00000    1.00000    1.00000    1.00000    1.00000    1.00000
   1.00000    1.00000    1.00000    1.00000    1.00000    0.00000    0.00000    0.00000
   0.00000    0.00000    0.00000    0.00000    0.00000    0.00000    0.00000    0.00000
   0.00000
 prteigrs : prtvol=0 or 1, do not print more k-points.


--- !EnergyTerms
comment             : Components of total free energy in Hartree
kinetic             :  1.88435979386516E+01
hartree             :  4.68600647930724E+01
xc                  : -2.34928259961613E+01
Ewald energy        : -1.71889993187126E+02
psp_core            :  1.45811374803459E+01
local_psp           : -1.18745217961029E+02
spherical_terms     : -1.48253006858330E+01
internal            : -2.48668537618080E+02
'-kT*entropy'       :  5.08873107406872E-05
total_energy        : -2.48668486730770E+02
total_energy_eV     : -6.76661364631629E+03
...


--- !EnergyTermsDC
comment             : '"Double-counting" decomposition of free energy'
band_energy         : -2.924629628761461E+001
Ewald energy        : -1.718899931871265E+002
psp_core            :  1.458113748034586E+001
xc_dc               : -3.968204927998192E+001
spherical_terms     : -2.245273420666821E+001
internal            : -2.486899354810454E+002
'-kT*entropy'       :  5.088731074068721E-005
total_energy_dc     : -2.486898845937346E+002
total_energy_dc_eV  : -6.766613646316287E+003
...


 Cartesian components of stress tensor (hartree/bohr^3)
  sigma(1 1)=  7.33852165E-03  sigma(3 2)=  0.00000000E+00
  sigma(2 2)=  7.33852165E-03  sigma(3 1)=  0.00000000E+00
  sigma(3 3)=  7.33852165E-03  sigma(2 1)=  0.00000000E+00

-Cartesian components of stress tensor (GPa)         [Pressure= -2.1591E+02 GPa]
- sigma(1 1)=  2.15906725E+02  sigma(3 2)=  0.00000000E+00
- sigma(2 2)=  2.15906725E+02  sigma(3 1)=  0.00000000E+00
- sigma(3 3)=  2.15906725E+02  sigma(2 1)=  0.00000000E+00

== END DATASET(S) ==============================================================
================================================================================
  
 -outvars: echo values of variables after computation  --------
            acell      5.4200000000E+00  5.4200000000E+00  5.4200000000E+00 Bohr
              amu      5.58470000E+01
         atvshift        0.00367    0.00367    0.00367    0.00367    0.00367
                         0.00367    0.00367    0.00367    0.00367    0.00367
                         0.00000    0.00000    0.00000    0.00000    0.00000
                         0.00000    0.00000    0.00000    0.00000    0.00000
           diemix      4.50000000E-01
        dmatpuopt           3
             ecut      8.00000000E+00 Hartree
           etotal     -2.4868988459E+02
            fcart     -0.0000000000E+00 -0.0000000000E+00 -0.0000000000E+00
                      -0.0000000000E+00 -0.0000000000E+00 -0.0000000000E+00
-          fftalg         312
           irdwfk           1
           istwfk        0    0    0    9
              ixc          11
              kpt      1.66666667E-01  1.66666667E-01  1.66666667E-01
                       5.00000000E-01  1.66666667E-01  1.66666667E-01
                       5.00000000E-01  5.00000000E-01  1.66666667E-01
                       5.00000000E-01  5.00000000E-01  5.00000000E-01
         kptrlatt        3    0    0      0    3    0      0    0    3
          kptrlen      1.62600000E+01
            lpawu           2
         macro_uj        1
P           mkmem           4
            natom           2
            nband          25
        natvshift        5
            ngfft          15      15      15
          ngfftdg          32      32      32
             nkpt           4
           nspden           2
           nsppol           2
             nsym          48
           ntypat           1
              occ      1.000000  1.000000  1.000000  1.000000  1.000000  1.000000
                       1.000000  1.000000  1.000000  1.000000  1.000000  1.000000
                       1.000000  1.000000  1.000000  1.000000  1.000000  1.000000
                       1.000000  0.000000  0.000000  0.000000  0.000000  0.000000
                       0.000000
                       1.000000  1.000000  1.000000  1.000000  1.000000  1.000000
                       1.000000  1.000000  1.000000  1.000000  1.000000  1.000000
                       1.000000  1.000000  1.000000  1.000000  1.000000  1.000000
                       0.000000  0.000000  0.000000  0.000000  0.000000  0.000000
                       0.000000
                       1.000000  1.000000  1.000000  1.000000  1.000000  1.000000
                       1.000000  1.000000  1.000000  1.000000  1.000000  1.000000
                       1.000000  1.000000  1.000000  1.000000  1.000000  1.000000
                       0.000000  0.000000  0.000000  0.000000  0.000000  0.000000
                       0.000000
                       1.000000  1.000000  1.000000  1.000000  1.000000  1.000000
                       1.000000  1.000000  1.000000  1.000000  1.000000  1.000000
                       1.000000  1.000000  1.000000  1.000000  1.000000  1.000000
                       0.000000  0.000000  0.000000  0.000000  0.000000  0.000000
                       0.000000
                       1.000000  1.000000  1.000000  1.000000  1.000000  1.000000
                       1.000000  1.000000  1.000000  1.000000  1.000000  1.000000
                       1.000000  0.000000  0.000000  0.000000  0.000000  0.000000
                       0.000000  0.000000  0.000000  0.000000  0.000000  0.000000
                       0.000000
                       1.000000  1.000000  1.000000  1.000000  1.000000  1.000000
                       1.000000  1.000000  1.000000  1.000000  1.000000  1.000000
                       1.000000  1.000000  0.000000  0.000000  0.000000  0.000000
                       0.000000  0.000000  0.000000  0.000000  0.000000  0.000000
                       0.000000
                       1.000000  1.000000  1.000000  1.000000  1.000000  1.000000
                       1.000000  1.000000  1.000000  1.000000  1.000000  1.000000
                       1.000000  1.000000  0.000000  0.000000  0.000000  0.000000
                       0.000000  0.000000  0.000000  0.000000  0.000000  0.000000
                       0.000000
                       1.000000  1.000000  1.000000  1.000000  1.000000  1.000000
                       1.000000  1.000000  1.000000  1.000000  1.000000  1.000000
                       1.000000  1.000000  0.000000  0.000000  0.000000  0.000000
                       0.000000  0.000000  0.000000  0.000000  0.000000  0.000000
                       0.000000
           occopt           4
        pawecutdg      4.00000000E+01 Hartree
         pawujrad      2.6686600000E+00 Bohr
           prtden           0
           prteig           0
            prtwf           0
           shiftk      5.00000000E-01  5.00000000E-01  5.00000000E-01
          spgroup         221
           strten      7.3385216453E-03  7.3385216453E-03  7.3385216453E-03
                       0.0000000000E+00  0.0000000000E+00  0.0000000000E+00
           symrel      1  0  0   0  1  0   0  0  1      -1  0  0   0 -1  0   0  0 -1
                      -1  0  0   0  1  0   0  0 -1       1  0  0   0 -1  0   0  0  1
                      -1  0  0   0 -1  0   0  0  1       1  0  0   0  1  0   0  0 -1
                       1  0  0   0 -1  0   0  0 -1      -1  0  0   0  1  0   0  0  1
                       0  1  0   1  0  0   0  0  1       0 -1  0  -1  0  0   0  0 -1
                       0 -1  0   1  0  0   0  0 -1       0  1  0  -1  0  0   0  0  1
                       0 -1  0  -1  0  0   0  0  1       0  1  0   1  0  0   0  0 -1
                       0  1  0  -1  0  0   0  0 -1       0 -1  0   1  0  0   0  0  1
                       0  0  1   1  0  0   0  1  0       0  0 -1  -1  0  0   0 -1  0
                       0  0 -1   1  0  0   0 -1  0       0  0  1  -1  0  0   0  1  0
                       0  0 -1  -1  0  0   0  1  0       0  0  1   1  0  0   0 -1  0
                       0  0  1  -1  0  0   0 -1  0       0  0 -1   1  0  0   0  1  0
                       1  0  0   0  0  1   0  1  0      -1  0  0   0  0 -1   0 -1  0
                      -1  0  0   0  0  1   0 -1  0       1  0  0   0  0 -1   0  1  0
                      -1  0  0   0  0 -1   0  1  0       1  0  0   0  0  1   0 -1  0
                       1  0  0   0  0 -1   0 -1  0      -1  0  0   0  0  1   0  1  0
                       0  1  0   0  0  1   1  0  0       0 -1  0   0  0 -1  -1  0  0
                       0 -1  0   0  0  1  -1  0  0       0  1  0   0  0 -1   1  0  0
                       0 -1  0   0  0 -1   1  0  0       0  1  0   0  0  1  -1  0  0
                       0  1  0   0  0 -1  -1  0  0       0 -1  0   0  0  1   1  0  0
                       0  0  1   0  1  0   1  0  0       0  0 -1   0 -1  0  -1  0  0
                       0  0 -1   0  1  0  -1  0  0       0  0  1   0 -1  0   1  0  0
                       0  0 -1   0 -1  0   1  0  0       0  0  1   0  1  0  -1  0  0
                       0  0  1   0 -1  0  -1  0  0       0  0 -1   0  1  0   1  0  0
           tolvrs      1.00000000E-08
           tsmear      1.83746627E-03 Hartree
            typat      1  1
          usepawu           1
           useylm           1
              wtk        0.29630    0.44444    0.22222    0.03704
           xangst      0.0000000000E+00  0.0000000000E+00  0.0000000000E+00
                       1.4340702353E+00  1.4340702353E+00  1.4340702353E+00
            xcart      0.0000000000E+00  0.0000000000E+00  0.0000000000E+00
                       2.7100000000E+00  2.7100000000E+00  2.7100000000E+00
             xred      0.0000000000E+00  0.0000000000E+00  0.0000000000E+00
                       5.0000000000E-01  5.0000000000E-01  5.0000000000E-01
            znucl       26.00000

================================================================================


- Timing analysis has been suppressed with timopt=0



================================================================================

 Suggested references for the acknowledgment of ABINIT usage.

 The users of ABINIT have little formal obligations with respect to the ABINIT group
 (those specified in the GNU General Public License, http://www.gnu.org/copyleft/gpl.txt).
 However, it is common practice in the scientific literature,
 to acknowledge the efforts of people that have made the research possible.
 In this spirit, please find below suggested citations of work written by ABINIT developers,
 corresponding to implementations inside of ABINIT that you have used in the present run.
 Note also that it will be of great value to readers of publications presenting these results,
 to read papers enabling them to understand the theoretical formalism and details
 of the ABINIT implementation.
 For information on why they are suggested, see also https://docs.abinit.org/theory/acknowledgments.
-
- [1] Gamma and beta cerium: LDA+U calculations of ground-state parameters.
- B. Amadon, F. Jollet and M. Torrent, Phys. Rev. B 77, 155104 (2008).
- Comment: LDA+U calculations, usepawu/=0. Strong suggestion to cite this paper.
- DOI and bibtex: see https://docs.abinit.org/theory/bibliography/#amadon2008a
-
- [2] Implementation of the Projector Augmented-Wave Method in the ABINIT code.
- M. Torrent, F. Jollet, F. Bottin, G. Zerah, and X. Gonze Comput. Mat. Science 42, 337, (2008).
- Comment: PAW calculations. Strong suggestion to cite this paper.
- DOI and bibtex: see https://docs.abinit.org/theory/bibliography/#torrent2008
-
- [3] The Abinit project: Impact, environment and recent developments.
- Computer Phys. Comm. 248, 107042 (2020).
- X.Gonze, B. Amadon, G. Antonius, F.Arnardi, L.Baguet, J.-M.Beuken,
- J.Bieder, F.Bottin, J.Bouchet, E.Bousquet, N.Brouwer, F.Bruneval,
- G.Brunin, T.Cavignac, J.-B. Charraud, Wei Chen, M.Cote, S.Cottenier,
- J.Denier, G.Geneste, Ph.Ghosez, M.Giantomassi, Y.Gillet, O.Gingras,
- D.R.Hamann, G.Hautier, Xu He, N.Helbig, N.Holzwarth, Y.Jia, F.Jollet,
- W.Lafargue-Dit-Hauret, K.Lejaeghere, M.A.L.Marques, A.Martin, C.Martins,
- H.P.C. Miranda, F.Naccarato, K. Persson, G.Petretto, V.Planes, Y.Pouillon,
- S.Prokhorenko, F.Ricci, G.-M.Rignanese, A.H.Romero, M.M.Schmitt, M.Torrent,
- M.J.van Setten, B.Van Troeye, M.J.Verstraete, G.Zerah and J.W.Zwanzig
- Comment: the fifth generic paper describing the ABINIT project.
- Note that a version of this paper, that is not formatted for Computer Phys. Comm. 
- is available at https://www.abinit.org/sites/default/files/ABINIT20.pdf .
- The licence allows the authors to put it on the Web.
- DOI and bibtex: see https://docs.abinit.org/theory/bibliography/#gonze2020
-
- [4] Recent developments in the ABINIT software package.
- Computer Phys. Comm. 205, 106 (2016).
- X.Gonze, F.Jollet, F.Abreu Araujo, D.Adams, B.Amadon, T.Applencourt,
- C.Audouze, J.-M.Beuken, J.Bieder, A.Bokhanchuk, E.Bousquet, F.Bruneval
- D.Caliste, M.Cote, F.Dahm, F.Da Pieve, M.Delaveau, M.Di Gennaro,
- B.Dorado, C.Espejo, G.Geneste, L.Genovese, A.Gerossier, M.Giantomassi,
- Y.Gillet, D.R.Hamann, L.He, G.Jomard, J.Laflamme Janssen, S.Le Roux,
- A.Levitt, A.Lherbier, F.Liu, I.Lukacevic, A.Martin, C.Martins,
- M.J.T.Oliveira, S.Ponce, Y.Pouillon, T.Rangel, G.-M.Rignanese,
- A.H.Romero, B.Rousseau, O.Rubel, A.A.Shukri, M.Stankovski, M.Torrent,
- M.J.Van Setten, B.Van Troeye, M.J.Verstraete, D.Waroquier, J.Wiktor,
- B.Xu, A.Zhou, J.W.Zwanziger.
- Comment: the fourth generic paper describing the ABINIT project.
- Note that a version of this paper, that is not formatted for Computer Phys. Comm. 
- is available at https://www.abinit.org/sites/default/files/ABINIT16.pdf .
- The licence allows the authors to put it on the Web.
- DOI and bibtex: see https://docs.abinit.org/theory/bibliography/#gonze2016
-
- [5] ABINIT: First-principles approach of materials and nanosystem properties.
- Computer Phys. Comm. 180, 2582-2615 (2009).
- X. Gonze, B. Amadon, P.-M. Anglade, J.-M. Beuken, F. Bottin, P. Boulanger, F. Bruneval,
- D. Caliste, R. Caracas, M. Cote, T. Deutsch, L. Genovese, Ph. Ghosez, M. Giantomassi
- S. Goedecker, D.R. Hamann, P. Hermet, F. Jollet, G. Jomard, S. Leroux, M. Mancini, S. Mazevet,
- M.J.T. Oliveira, G. Onida, Y. Pouillon, T. Rangel, G.-M. Rignanese, D. Sangalli, R. Shaltaf,
- M. Torrent, M.J. Verstraete, G. Zerah, J.W. Zwanziger
- Comment: the third generic paper describing the ABINIT project.
- Note that a version of this paper, that is not formatted for Computer Phys. Comm. 
- is available at https://www.abinit.org/sites/default/files/ABINIT_CPC_v10.pdf .
- The licence allows the authors to put it on the Web.
- DOI and bibtex: see https://docs.abinit.org/theory/bibliography/#gonze2009
-
- Proc.   0 individual time (sec): cpu=          9.3  wall=          9.3

================================================================================

 Calculation completed.
.Delivered   9 WARNINGs and   2 COMMENTs to log file.
+Overall time at end (sec) : cpu=          9.3  wall=          9.3
